# vtk DataFile Version 3.0
this file was written using fslvtkio
ASCII
DATASET POLYDATA
POINTS 1160 float
114.218 118.586 65.7365
113.968 117.95 66.028
113.595 118.597 65.9763
114.672 118.125 66.174
113.977 119.467 65.6862
113.349 119.328 66.0723
114.747 119.113 65.9864
113.701 120.341 65.6956
113.079 120.128 66.0126
114.664 119.89 65.9381
113.022 121.018 65.5059
112.689 120.478 65.8644
112.286 120.888 65.9175
113.801 121.193 65.5453
114.632 120.909 66.0658
112.014 122.071 65.455
111.758 121.37 66.0148
111.357 122.078 65.9479
112.977 122.12 65.3999
113.686 122.293 65.6106
114.523 121.674 66.0731
111.311 122.949 65.4175
110.775 122.421 66.1925
110.46 123.23 65.7542
112.095 122.969 65.3376
113.099 123.028 65.5307
113.828 123.003 66.1654
114.303 122.455 66.2051
110.373 124.174 65.341
109.895 123.547 66.0442
109.609 124.264 65.6913
111.421 124.214 65.332
112.097 123.997 65.3679
112.84 124.118 65.9529
113.422 123.621 66.1124
109.592 125.058 65.3213
108.872 124.465 66.1268
108.71 125.275 65.5362
110.409 125.13 65.2777
111.071 124.93 65.2952
111.76 125.06 65.4873
112.397 124.766 65.7988
108.409 126.121 65.2866
107.961 125.539 65.8408
107.418 126.182 65.7419
109.306 126.058 65.2459
110.154 126.047 65.3149
111.016 126.165 65.5259
111.874 126.066 66.1767
112.312 125.437 66.067
107.242 126.992 65.3882
106.603 126.513 66.1757
106.397 126.987 65.746
108.27 127.266 65.2645
109.059 126.796 65.2573
110.13 126.949 65.4476
110.843 126.973 65.9475
111.496 126.595 66.1104
104.626 128.183 65.4355
103.862 127.543 66.1255
103.728 128.382 65.6753
105.352 128.049 65.3808
104.773 127.486 65.8883
106.392 127.714 65.3193
105.409 127.327 65.9155
107.079 127.872 65.2658
107.929 128.017 65.2826
108.92 127.746 65.3615
109.742 127.869 65.7716
110.381 127.57 65.9697
104.473 129.056 65.3676
103.775 129.299 65.6658
105.255 128.833 65.3106
106.097 128.711 65.2823
106.891 128.954 65.3531
107.779 128.803 65.5305
108.504 128.554 65.6521
109.248 128.564 65.9236
104.385 129.744 65.5614
104.602 130.506 65.8459
105.029 129.752 65.4093
106.112 129.662 65.4369
106.773 129.895 65.8212
107.44 129.437 65.7258
105.296 130.593 65.7901
106.049 130.576 65.8912
115.09 117.542 66.5752
115.299 116.605 67.1342
114.716 116.945 66.7917
115.617 117.341 66.9506
114.019 117.54 66.7146
113.427 118.089 66.673
115.197 118.42 66.3933
115.709 118.199 67.0718
112.975 118.997 66.7558
115.319 119.381 66.4757
115.686 118.874 67.0532
112.434 120.021 66.4666
112.408 119.369 67.1209
112.069 119.957 67.1318
115.278 120.1 66.4764
115.718 119.461 67.2232
111.903 120.543 66.5354
111.539 120.442 67.3708
111.361 121.069 66.823
115.24 120.898 66.6228
115.65 120.351 67.299
111.066 121.611 66.9565
114.934 121.539 66.7378
115.481 121.09 67.4404
110.573 122.194 67.1008
110.256 122.835 66.5408
114.456 122.806 66.6362
114.732 122.363 67.1223
109.628 123.296 67.0313
109.284 123.812 66.6698
113.414 124.19 66.6065
113.866 123.777 66.9693
114.41 123.161 67.2443
108.692 124.283 66.956
108.358 124.83 66.3318
112.98 124.685 66.6202
113.551 124.359 67.3253
107.705 125.241 66.7519
107.19 125.875 66.4345
112.38 125.86 66.4237
112.712 125.379 66.7296
105.908 126.767 66.2894
105.78 126.357 67.1483
105.311 126.882 66.6364
106.547 126.041 67.1585
111.407 127.028 66.3351
111.88 126.759 66.7159
112.366 126.219 66.9111
101.774 128.527 66.3977
101.293 128.132 66.6079
100.978 128.902 66.534
102.609 128.351 66.3062
102.048 127.705 66.7954
103.291 128.118 66.0617
103.078 127.413 66.7321
103.814 127.244 66.8296
104.716 127.171 66.6316
110.301 128.026 66.2414
110.788 127.997 66.7209
111.372 127.4 66.7267
101.32 129.502 66.4361
100.512 129.385 66.9353
102.394 129.225 66.1828
103.185 129.192 65.9983
108.163 129.387 66.063
108.924 129.364 66.4619
109.595 128.927 66.5111
110.277 128.444 66.6213
100.973 130.114 66.6752
100.366 130.087 67.095
102.006 130.234 66.323
102.89 130.102 66.144
103.722 130.09 66.0305
107.658 129.907 66.1399
108.25 130.114 66.5331
108.848 130.031 67.1028
109.436 129.598 67.2172
100.588 130.792 67.4052
101.212 131.629 67.5585
101.633 130.941 66.6986
102.501 130.851 66.3128
103.487 130.76 66.1649
104.638 131.196 66.1852
105.522 131.139 66.2815
106.52 130.87 66.4036
107.405 130.602 66.591
108.176 130.601 67.0477
101.761 131.824 66.8634
101.643 132.24 67.6395
102.573 131.742 66.5031
103.482 131.701 66.3983
104.545 132.058 66.9127
105.36 131.694 66.8597
106.265 131.436 66.917
102.189 132.323 67.0083
102.888 132.342 66.8313
103.721 132.313 66.719
114.954 116.307 67.3878
115.146 115.869 67.781
114.485 115.981 67.7531
115.568 116.179 68.126
114.127 116.82 67.2115
113.723 116.512 67.8136
113.482 117.329 67.3986
116.059 117.526 67.36
115.813 116.675 67.5124
116.299 116.969 67.8718
113.061 118.063 67.4385
116.173 118.104 67.6368
116.424 117.578 67.9362
112.641 118.758 67.3575
112.562 118.362 67.8811
112.205 119.038 67.8232
115.943 118.726 67.9238
116.24 117.979 68.3824
111.903 119.624 67.9843
115.834 119.544 67.9929
111.446 120.183 68.1211
111.184 120.844 67.775
115.717 120.425 67.9695
110.869 121.484 67.8148
115.032 121.777 67.8844
115.473 121.132 68.1347
110.532 122.045 67.6704
110.129 122.483 67.6205
114.72 122.596 67.9467
109.622 123.047 67.7968
109.142 123.648 67.5824
113.877 123.953 67.9058
114.429 123.224 68.0524
108.446 124.198 68.0117
108.117 124.768 67.161
113.091 124.977 67.6656
113.446 124.651 68.2583
107.675 125.117 67.3497
107.037 125.583 67.4876
112.829 125.654 67.7389
105.39 126.293 67.9755
105.087 126.676 67.3961
106.259 125.956 67.8822
112.108 126.914 67.58
112.559 126.383 67.949
100.524 128.399 67.2002
101.135 127.765 67.1825
101.773 127.515 67.4365
102.568 127.25 67.758
103.372 127.127 67.5847
104.109 127.001 67.6259
111.276 127.923 67.1686
111.686 127.611 67.5158
99.9267 129.389 67.4479
99.8771 128.811 67.7952
99.5801 129.403 68.0836
100.456 128.129 67.9723
101.223 127.691 67.8712
110.099 129.007 67.1076
110.632 128.683 67.29
111.25 128.309 67.6796
99.9376 130.205 67.6896
99.5606 130.047 68.5986
109.031 130.182 67.9497
109.584 129.879 68.2912
110.221 129.377 67.7751
100.076 130.704 68.2066
100.529 131.281 68.0427
100.345 131.218 68.9649
107.097 131.095 67.0477
107.743 131.059 67.3373
108.565 130.771 67.9153
100.941 131.724 68.3767
101.49 132.246 68.4004
105.101 132.192 67.3713
105.701 132.125 67.7337
106.45 131.833 67.9155
107.125 131.564 67.7992
107.764 131.448 68.196
102.353 132.775 68.0629
102.867 132.913 67.449
102.916 133.197 68.2032
103.619 132.814 67.175
104.527 132.595 67.456
105.088 132.684 68.4649
103.466 133.281 67.777
104.079 133.137 67.7536
115.122 115.525 68.3226
114.983 114.808 69.0614
114.486 115.276 68.5278
115.564 115.387 69.0438
114.184 115.829 68.162
113.817 115.557 68.6849
113.381 116.347 68.5348
115.762 115.99 69.1374
113.11 117.081 68.4247
116.002 116.577 68.2247
115.85 116.849 68.9888
112.705 117.787 68.3214
112.568 117.53 68.992
112.301 118.22 68.6273
116.16 117.233 68.5857
115.936 117.78 68.9266
111.972 118.905 68.8315
115.892 118.851 68.9185
111.638 119.544 68.5554
111.542 119.32 69.2196
111.2 120.153 68.7564
115.811 119.665 68.8869
110.869 120.813 68.8849
115.555 120.64 68.7289
115.16 121.242 68.9364
115.403 120.619 69.4166
110.41 121.792 68.2703
110.448 121.232 69.0313
110.077 121.842 68.9159
114.827 122.003 69.067
109.908 122.423 68.2551
109.48 122.486 68.9815
109.26 123.048 68.5594
114.586 122.715 68.6964
114.082 123.382 69.0503
114.482 122.576 69.4772
108.853 123.594 68.6176
113.79 124.059 69.1773
107.753 124.909 67.9058
108.081 124.279 68.5773
107.482 124.807 68.4871
108.507 124.014 68.5877
113.052 125.286 68.545
113.44 124.776 68.9276
106.986 125.376 68.1608
106.885 125.109 68.968
106.348 125.554 68.7084
112.796 126.039 68.6577
104.746 126.611 68.0378
104.793 126.198 68.8779
104.109 126.768 68.3162
105.797 125.855 68.7945
112.033 127.243 68.2916
112.434 126.735 68.5987
101.072 127.457 68.6014
100.846 127.278 69.3114
100.378 127.828 68.6435
101.796 127.358 68.2317
101.683 127.165 68.9571
102.515 127.1 68.5303
103.206 126.956 68.5337
111.679 127.961 68.184
99.8765 128.342 68.5603
99.4771 129.078 68.7713
110.757 129.008 68.3462
111.256 128.595 68.703
99.5072 129.863 69.5542
109.015 130.372 68.7561
109.62 129.979 69.064
110.382 129.438 68.6852
99.8184 130.535 69.3628
100.402 131.23 69.7968
108.389 130.987 68.6334
107.872 131.34 69.0107
108.477 130.881 69.601
100.902 131.753 69.374
101.448 132.247 69.5023
106.021 132.366 68.4433
106.576 132.171 68.7737
107.248 131.737 68.8508
102.235 132.713 68.9092
102.964 132.911 68.7796
103.763 133.164 68.4591
104.175 132.868 69.0246
104.495 132.951 68.3218
105.132 132.902 69.2309
106.005 132.641 69.2418
114.17 115.033 69.1829
114.357 114.827 69.7951
113.63 115.474 69.3096
115.342 114.975 69.6985
115.669 115.528 69.831
113.242 116.242 69.3155
115.828 116.351 69.8183
113.005 116.88 69.3229
115.887 117.208 69.6367
112.589 117.275 69.8919
112.242 117.968 69.3412
115.885 117.99 69.826
111.917 118.668 69.5625
115.829 118.946 69.689
111.513 119.131 69.819
110.999 119.881 69.7857
115.704 119.784 69.6283
110.598 120.605 69.5235
110.402 120.279 70.2692
110.017 121.239 69.8421
115.006 120.964 70.017
115.321 120.356 70.196
109.741 121.906 69.5661
114.74 121.864 69.9356
109.372 122.342 69.5515
109.018 122.921 69.4077
113.949 123.359 69.9588
114.35 122.502 70.2468
108.555 123.617 69.1501
108.644 123.168 69.7092
108.211 123.406 69.9922
113.732 124.068 70.0325
107.505 124.534 69.0675
107.971 124.048 69.456
113.209 125.288 69.2891
113.607 124.633 69.7007
106.882 124.902 69.6016
106.301 125.287 69.4355
107.314 124.571 69.5603
112.897 125.838 69.7224
113.36 125.293 69.7961
104.076 126.512 68.9683
104.081 126.199 69.4967
103.302 126.639 69.244
104.716 125.951 69.6451
105.507 125.683 69.6061
112.151 127.253 69.1034
112.579 126.633 69.4095
100.056 127.813 69.215
100.029 127.554 69.8717
99.5972 128.219 69.5198
100.75 126.97 70.3114
101.555 126.894 69.85
102.529 126.813 69.4401
111.766 127.961 69.1688
112.012 127.62 69.615
99.3663 128.908 69.8347
110.835 128.966 69.3526
111.399 128.489 69.3986
99.4169 129.513 70.2455
109.218 130.42 69.6412
[...]
POINT_DATA 1160
SCALARS Scalars float
LOOKUP_TABLE default
0.5
0.5
0.5
0.5
0.5
0.5
0.5
0.5
0.5
0.5
0.5
0.5
0.5
0.5
0.5
0.5
0.5
0.5
0.5
0.5
0.5
0.5
0.5
0.5
0.5
0.5
0.5
0.5
0.5
0.5
0.5
0.5
0.5
0.5
0.5
0.5
0.5
0.5
0.5
0.5
0.5
0.5
0.5
0.5
0.5
0.5
0.5
0.5
0.5
0.5
0.5
0.5
0.5
0.5
0.5
0.5
0.5
0.5
0.5
0.5
0.5
0.5
0.5
0.5
0.5
0.5
0.5
0.5
0.5
0.5
0.5
0.5
0.5
0.5
0.5
0.5
0.5
0.5
0.5
0.5
0.5
0.5
0.5
0.5
0.5
0.5
0.5
0.5
0.5
0.5
0.5
0.5
0.5
0.5
0.5
0.5
0.5
0.5
0.5
0.5
0.5
0.5
0.5
0.5
0.5
0.5
0.5
0.5
0.5
0.5
0.5
0.5
0.5
0.5
0.5
0.5
0.5
0.5
0.5
0.5
0.5
0.5
0.5
0.5
0.5
0.5
0.5
0.5
0.5
0.5
0.5
0.5
0.5
0.5
0.5
0.5
0.5
0.5
0.5
0.5
0.5
0.5
0.5
0.5
0.5
0.5
0.5
0.5
0.5
0.5
0.5
0.5
0.5
0.5
0.5
0.5
0.5
0.5
0.5
0.5
0.5
0.5
0.5
0.5
0.5
0.5
0.5
0.5
0.5
0.5
0.5
0.5
0.5
0.5
0.5
0.5
0.5
0.5
0.5
0.5
0.5
0.5
0.5
0.5
0.5
0.5
0.5
0.5
0.5
0.5
0.5
0.5
0.5
0.5
0.5
0.5
0.5
0.5
0.5
0.5
0.5
0.5
0.5
0.5
0.5
0.5
0.5
0.5
0.5
0.5
0.5
0.5
0.5
0.5
0.5
0.5
0.5
0.5
0.5
0.5
0.5
0.5
0.5
0.5
0.5
0.5
0.5
0.5
0.5
0.5
0.5
0.5
0.5
0.5
0.5
0.5
0.5
0.5
0.5
0.5
0.5
0.5
0.5
0.5
0.5
0.5
0.5
0.5
0.5
0.5
0.5
0.5
0.5
0.5
0.5
0.5
0.5
0.5
0.5
0.5
0.5
0.5
0.5
0.5
0.5
0.5
0.5
0.5
0.5
0.5
0.5
0.5
0.5
0.5
0.5
0.5
0.5
0.5
0.5
0.5
0.5
0.5
0.5
0.5
0.5
0.5
0.5
0.5
0.5
0.5
0.5
0.5
0.5
0.5
0.5
0.5
0.5
0.5
0.5
0.5
0.5
0.5
0.5
0.5
0.5
0.5
0.5
0.5
0.5
0.5
0.5
0.5
0.5
0.5
0.5
0.5
0.5
0.5
0.5
0.5
0.5
0.5
0.5
0.5
0.5
0.5
0.5
0.5
0.5
0.5
0.5
0.5
0.5
0.5
0.5
0.5
0.5
0.5
0.5
0.5
0.5
0.5
0.5
0.5
0.5
0.5
0.5
0.5
0.5
0.5
0.5
0.5
0.5
0.5
0.5
0.5
0.5
0.5
0.5
0.5
0.5
0.5
0.5
0.5
0.5
0.5
0.5
0.5
0.5
0.5
0.5
0.5
0.5
0.5
0.5
0.5
0.5
0.5
0.5
0.5
0.5
0.5
0.5
0.5
0.5
0.5
0.5
0.5
0.5
0.5
0.5
0.5
0.5
0.5
0.5
0.5
0.5
0.5
0.5
0.5
0.5
0.5
0.5
0.5
0.5
0.5
0.5
0.5
0.5
0.5
0.5
0.5
0.5
0.5
0.5
0.5
0.5
0.5
0.5
0.5
0.5
0.5
0.5
0.5
0.5
0.5
0.5
0.5
0.5
0.5
0.5
0.5
0.5
0.5
0.5
0.5
0.5
0.5
0.5
0.5
0.5
0.5
0.5
0.5
0.5
0.5
0.5
0.5
0.5
0.5
0.5
0.5
0.5
0.5
0.5
0.5
0.5
0.5
0.5
0.5
0.5
0.5
0.5
0.5
0.5
0.5
0.5
0.5
0.5
0.5
0.5
0.5
0.5
0.5
0.5
0.5
0.5
0.5
0.5
0.5
0.5
0.5
0.5
0.5
0.5
0.5
0.5
0.5
0.5
0.5
0.5
0.5
0.5
0.5
0.5
0.5
0.5
0.5
0.5
0.5
0.5
0.5
0.5
0.5
0.5
0.5
0.5
0.5
0.5
0.5
0.5
0.5
0.5
0.5
0.5
0.5
0.5
0.5
0.5
0.5
0.5
0.5
0.5
0.5
0.5
0.5
0.5
0.5
0.5
0.5
0.5
0.5
0.5
0.5
0.5
0.5
0.5
0.5
0.5
0.5
0.5
0.5
0.5
0.5
0.5
0.5
0.5
0.5
0.5
0.5
0.5
0.5
0.5
0.5
0.5
0.5
0.5
0.5
0.5
0.5
0.5
0.5
0.5
0.5
0.5
0.5
0.5
0.5
0.5
0.5
0.5
0.5
0.5
0.5
0.5
0.5
0.5
0.5
0.5
0.5
0.5
0.5
0.5
0.5
0.5
0.5
0.5
0.5
0.5
0.5
0.5
0.5
0.5
0.5
0.5
0.5
0.5
0.5
0.5
0.5
0.5
0.5
0.5
0.5
0.5
0.5
0.5
0.5
0.5
0.5
0.5
0.5
0.5
0.5
0.5
0.5
0.5
0.5
0.5
0.5
0.5
0.5
0.5
0.5
0.5
0.5
0.5
0.5
0.5
0.5
0.5
0.5
0.5
0.5
0.5
0.5
0.5
0.5
0.5
0.5
0.5
0.5
0.5
0.5
0.5
0.5
0.5
0.5
0.5
0.5
0.5
0.5
0.5
0.5
0.5
0.5
0.5
0.5
0.5
0.5
0.5
0.5
0.5
0.5
0.5
0.5
0.5
0.5
0.5
0.5
0.5
0.5
0.5
0.5
0.5
0.5
0.5
0.5
0.5
0.5
0.5
0.5
0.5
0.5
0.5
0.5
0.5
0.5
0.5
0.5
0.5
0.5
0.5
0.5
0.5
0.5
0.5
0.5
0.5
0.5
0.5
0.5
0.5
0.5
0.5
0.5
0.5
0.5
0.5
0.5
0.5
0.5
0.5
0.5
0.5
0.5
0.5
0.5
0.5
0.5
0.5
0.5
0.5
0.5
0.5
0.5
0.5
0.5
0.5
0.5
0.5
0.5
0.5
0.5
0.5
0.5
0.5
0.5
0.5
0.5
0.5
0.5
0.5
0.5
0.5
0.5
0.5
0.5
0.5
0.5
0.5
0.5
0.5
0.5
0.5
0.5
0.5
0.5
0.5
0.5
0.5
0.5
0.5
0.5
0.5
0.5
0.5
0.5
0.5
0.5
0.5
0.5
0.5
0.5
0.5
0.5
0.5
0.5
0.5
0.5
0.5
0.5
0.5
0.5
0.5
0.5
0.5
0.5
0.5
0.5
0.5
0.5
0.5
0.5
0.5
0.5
0.5
0.5
0.5
0.5
0.5
0.5
0.5
0.5
0.5
0.5
0.5
0.5
0.5
0.5
0.5
0.5
0.5
0.5
0.5
0.5
0.5
0.5
0.5
0.5
0.5
0.5
0.5
0.5
0.5
0.5
0.5
0.5
0.5
0.5
0.5
0.5
0.5
0.5
0.5
0.5
0.5
0.5
0.5
0.5
0.5
0.5
0.5
0.5
0.5
0.5
0.5
0.5
0.5
0.5
0.5
0.5
0.5
0.5
0.5
0.5
0.5
0.5
0.5
0.5
0.5
0.5
0.5
0.5
0.5
0.5
0.5
0.5
0.5
0.5
0.5
0.5
0.5
0.5
0.5
0.5
0.5
0.5
0.5
0.5
0.5
0.5
0.5
0.5
0.5
0.5
0.5
0.5
0.5
0.5
0.5
0.5
0.5
0.5
0.5
0.5
0.5
0.5
0.5
0.5
0.5
0.5
0.5
0.5
0.5
0.5
0.5
0.5
0.5
0.5
0.5
0.5
0.5
0.5
0.5
0.5
0.5
0.5
0.5
0.5
0.5
0.5
0.5
0.5
0.5
0.5
0.5
0.5
0.5
0.5
0.5
0.5
0.5
0.5
0.5
0.5
0.5
0.5
0.5
0.5
0.5
0.5
0.5
0.5
0.5
0.5
0.5
0.5
0.5
0.5
0.5
0.5
0.5
0.5
0.5
0.5
0.5
0.5
0.5
0.5
0.5
0.5
0.5
0.5
0.5
0.5
0.5
0.5
0.5
0.5
0.5
0.5
0.5
0.5
0.5
0.5
0.5
0.5
0.5
0.5
0.5
0.5
0.5
0.5
0.5
0.5
0.5
0.5
0.5
0.5
0.5
0.5
0.5
0.5
0.5
0.5
0.5
0.5
0.5
0.5
0.5
0.5
0.5
0.5
0.5
0.5
0.5
0.5
0.5
0.5
0.5
0.5
0.5
0.5
0.5
0.5
0.5
0.5
0.5
0.5
0.5
0.5
0.5
0.5
0.5
0.5
0.5
0.5
0.5
0.5
0.5
0.5
0.5
0.5
0.5
0.5
0.5
0.5
0.5
0.5
0.5
0.5
0.5
0.5
0.5
0.5
0.5
0.5
0.5
0.5
0.5
0.5
0.5
0.5
0.5
0.5
0.5
0.5
0.5
0.5
0.5
0.5
0.5
0.5
0.5
0.5
0.5
0.5
0.5
0.5
0.5
0.5
0.5
0.5
0.5
0.5
0.5
0.5
0.5
0.5
0.5
0.5
0.5
0.5
0.5
0.5
0.5
0.5
0.5
0.5
0.5
0.5
0.5
0.5
0.5
0.5
0.5
0.5
0.5
0.5
0.5
0.5
0.5
0.5
0.5
0.5
0.5
0.5
0.5
0.5
0.5
0.5
0.5
0.5
0.5
0.5
0.5
0.5
0.5
0.5
0.5
0.5
0.5
0.5
0.5
0.5
0.5
0.5
0.5
0.5
0.5
0.5
0.5
0.5
0.5
0.5
0.5
0.5
0.5
0.5
0.5
0.5
0.5
0.5
0.5
0.5
0.5
0.5
0.5
0.5
0.5
0.5
0.5
0.5
0.5
0.5
0.5
0.5
0.5
0.5
