# vtk DataFile Version 3.0
this file was written using fslvtkio
ASCII
DATASET POLYDATA
POINTS 362 float
95.4448 103.516 58.4574
95.3348 102.795 58.7022
94.7553 103.264 58.6108
96.2998 103.492 58.6914
96.1602 102.577 59.0913
96.7319 103.125 59.1426
94.6261 104.106 58.3417
94.2104 103.597 58.5135
93.7347 103.913 58.6367
95.4836 104.392 58.3414
96.1996 104.3 58.5373
96.8979 104.037 59.1254
93.4774 104.934 58.3508
93.2349 104.341 58.5857
92.8156 104.773 58.6707
94.5608 105.043 58.2402
95.4366 105.222 58.3198
96.2531 105.364 58.6204
96.8589 105.038 59.1222
92.6696 105.645 58.4414
92.1345 105.181 58.9666
91.6082 105.969 59.0397
93.4116 105.95 58.2459
94.3192 106.049 58.2264
95.0259 105.997 58.2779
95.9596 106.087 58.5775
96.753 105.992 59.2102
91.9799 106.559 58.6561
91.2565 106.922 59.31
93.0263 106.804 58.3125
94.2146 106.862 58.2575
95.1511 107.006 58.4327
95.7712 107.075 58.7897
96.4237 106.609 59.1136
91.7976 107.43 58.7437
91.3312 107.949 59.48
92.7153 107.397 58.3685
93.5666 107.679 58.343
94.7933 107.78 58.5176
95.5291 107.957 58.962
91.7961 108.318 58.9501
92.3453 108.896 58.9685
92.6993 108.353 58.5549
93.3871 108.65 58.628
94.3238 108.543 58.7429
95.0525 108.545 58.9901
93.018 109.276 59.0304
94.8926 102.291 59.2464
94.6333 101.787 59.9637
94.178 102.312 59.5557
95.6954 102.122 59.3329
95.3556 101.788 59.737
96.4058 102.029 59.9289
93.9619 103.169 59.0276
93.7476 102.579 59.5527
93.3958 103.004 59.5351
97.3346 103.448 59.7176
96.8436 102.562 59.7053
97.3764 102.83 60.3921
93.1705 103.787 59.0733
92.9503 103.269 59.6272
92.4946 103.566 59.7836
97.3867 104.397 59.6361
97.6303 103.69 60.4573
92.2256 104.406 59.3405
91.816 104.163 60.0524
91.4864 104.843 59.8704
97.3248 105.271 59.6921
97.6751 104.507 60.404
91.1525 105.901 59.8295
97.4506 105.825 59.8538
97.6573 105.608 60.5658
90.7738 106.615 59.9107
90.5619 106.223 60.428
90.3556 106.972 60.7713
96.3602 107.465 59.4353
96.9197 107.054 59.9832
97.4189 106.246 60.2703
90.6699 107.282 60.1359
90.97 108.172 60.3673
96.251 108.012 59.4823
96.7256 107.866 60.0935
91.6259 108.757 59.4883
91.3089 108.931 60.363
93.8941 109.155 59.0863
94.6335 109.223 59.3529
95.4962 109.182 59.7975
96.1578 108.476 59.8142
92.0788 109.433 59.771
92.7518 109.791 59.9612
93.7576 109.835 59.7977
94.9106 109.685 59.9423
93.6624 102.2 60.1708
93.9744 101.578 60.9615
93.2008 102.163 60.8426
94.98 101.411 60.8251
95.7245 101.514 60.5581
96.3326 101.716 61.0321
92.9022 102.723 60.3513
92.7491 102.364 61.4444
92.3373 102.861 60.8221
96.9889 102.327 60.8691
97.4343 102.867 61.2247
92.1419 103.418 60.3343
91.7326 103.258 61.145
91.3992 104.03 60.8224
97.7414 103.852 61.3703
91.0748 104.798 60.8557
97.7976 104.569 61.3542
90.705 105.555 60.6973
90.5349 105.275 61.3186
90.2811 106.009 61.3237
97.8151 105.412 61.443
90.2155 106.713 61.5877
97.4727 106.864 60.7286
97.7333 106.229 61.2773
90.459 107.678 60.758
90.3145 107.698 61.6548
97.0575 107.799 60.7789
97.6302 107.175 61.4642
90.7255 108.407 61.0327
91.1672 109.144 61.2033
96.1664 108.884 60.1661
96.6839 108.683 60.7647
91.8391 109.662 60.532
92.5944 110.165 60.527
92.2421 110.244 60.9892
93.5004 110.353 60.4178
94.4745 110.224 60.3411
95.4617 109.989 60.5553
96.0401 109.392 60.5109
92.7417 110.695 61.244
93.9368 110.788 60.9751
94.7215 110.665 60.88
94.0918 101.454 61.8081
93.4689 101.787 61.651
94.682 101.354 61.5037
95.6384 101.414 61.4388
96.3141 101.746 61.8819
91.9576 102.756 61.6312
92.1199 102.649 62.44
91.5544 103.227 62.0143
93.12 102.188 62.5262
97.0129 102.369 61.8001
97.5526 103.162 62.2494
91.1142 104.064 61.8486
97.7284 103.914 62.3303
90.7617 104.638 61.6414
90.7059 104.475 62.5142
90.3207 105.371 61.9893
97.8324 104.816 62.3771
90.2147 106.051 62.1047
97.8444 105.506 62.3637
90.1991 107.026 62.3262
97.849 106.386 62.4101
90.3225 107.9 62.3989
97.4814 107.889 61.6623
97.7856 107.275 62.2947
90.6155 108.499 61.9034
91.0528 109.249 62.2712
97.0085 108.848 61.7022
97.5471 108.333 62.3247
91.8854 110.177 61.4265
91.4047 110.027 62.2805
96.0479 109.844 60.9829
96.616 109.411 61.4159
92.1674 110.7 61.8332
92.7917 111.22 61.7798
92.5957 111.314 62.4771
93.6974 111.285 61.5961
94.4501 111.233 61.502
95.3647 110.784 61.3689
96.2103 110.104 61.6021
93.4943 111.59 62.3163
94.3076 111.555 62.1876
95.1409 111.359 62.0504
93.6683 101.836 62.4901
94.3118 101.588 62.6171
95.0502 101.421 62.3532
95.7956 101.598 62.4283
95.536 101.855 63.0768
92.2434 102.718 63.353
91.5424 103.266 62.9172
93.09 102.328 63.3512
93.9521 102.104 63.1779
96.2327 102.154 62.8912
97.137 102.704 62.8037
97.4498 103.362 63.2138
91.1151 104.02 62.9777
97.7047 104.091 63.1393
90.6996 104.618 63.4736
90.312 105.344 62.9019
97.7941 104.887 63.1926
90.2222 106.069 63.0059
97.8544 105.651 63.1705
90.2086 107.045 63.1688
97.8645 106.561 63.1141
90.3118 107.77 63.372
97.8453 107.287 63.3748
90.6108 108.583 62.749
91.0925 109.349 63.1145
97.4124 108.937 62.6743
97.7125 108.316 63.2783
91.3631 110.046 63.2931
96.8705 109.643 62.449
97.437 109.146 63.4366
91.7747 110.588 62.6662
92.2861 111.25 63.1134
95.7317 110.938 62.2489
96.3682 110.414 62.5317
93.1749 111.662 63.2575
94.1627 111.71 63.1743
95.2288 111.431 62.8662
94.8563 101.717 63.0938
91.9979 103.222 63.9527
92.7511 103.094 64.6414
93.154 102.522 64.071
93.9245 102.325 63.9272
95.237 102.204 63.7556
96.201 102.402 63.6155
96.9249 102.8 63.5341
96.4927 102.755 64.0432
92.2351 103.518 64.7152
91.4846 104.061 64.3191
96.7973 103.254 64.1786
97.4232 104.195 64.3325
90.9577 104.7 64.385
90.3672 105.428 63.7283
97.7157 105.072 64.1254
90.2483 106.234 63.7342
97.8163 105.884 64.0848
90.2517 107.039 63.8879
97.8447 106.861 64.0949
90.3914 107.785 64.1156
97.7919 107.797 64.1214
90.6566 108.513 63.7195
91.1743 109.01 64.3652
97.6512 108.671 64.1016
91.36 109.87 64.3456
96.8947 109.902 63.7456
97.2319 109.503 64.3505
91.7447 110.797 63.3842
91.5861 110.616 64.201
95.8377 111.038 63.0305
96.4977 110.508 63.7023
92.4602 111.459 63.7841
93.2531 111.682 63.971
94.2035 111.7 64.0244
94.924 111.605 63.7941
95.5988 111.358 63.9479
93.2469 102.93 64.761
93.7789 102.766 64.6228
94.7424 102.695 64.5954
95.7651 102.597 64.2646
92.0498 103.936 64.9304
92.8346 103.767 65.44
93.3861 103.367 65.2172
94.4276 103.212 65.1839
95.3529 103.243 65.115
96.2337 103.203 64.7318
96.8427 103.649 64.7026
96.4689 103.723 65.1583
90.6617 105.42 64.6638
91.4549 104.874 65.193
91.9461 104.346 65.213
96.973 104.347 65.0891
97.516 105.104 64.9712
90.9047 105.788 65.2964
90.3844 106.156 64.5014
97.7263 106.078 64.8265
90.4541 107.054 64.8109
97.7088 107.054 65.0911
90.667 107.648 64.8654
90.849 108.351 64.5218
91.2306 108.212 65.2263
97.6538 108.061 65.007
91.4252 109.042 65.161
97.3939 108.934 65.1516
91.6079 110.094 64.97
96.654 110.07 64.6078
97.1297 109.541 65.0166
91.9021 110.74 64.824
92.2205 111.285 64.416
92.5919 111.137 65.1301
96.2762 110.794 64.3541
95.6459 111.035 64.8765
96.254 110.574 64.9461
92.9619 111.555 64.5694
93.923 111.541 64.8811
94.9167 111.448 64.6935
93.4198 103.91 65.7862
94.0366 103.915 65.8416
95.0276 103.793 65.7213
95.8967 103.868 65.574
92.0191 104.794 65.7327
92.6069 104.7 66.0744
93.6271 104.482 66.2733
94.4438 104.428 66.3051
95.4921 104.468 66.2177
96.2567 104.509 65.9601
97.0665 104.9 65.6138
96.6076 105.126 66.2103
90.9228 106.519 65.5217
91.5102 106.062 65.9711
92.125 105.459 66.1634
97.2489 105.614 65.8799
97.4592 106.403 65.7519
90.9818 107.254 65.4879
91.5439 106.971 66.0732
97.4123 107.32 65.9029
91.7305 107.971 66.133
97.1925 108.47 65.8231
91.9656 108.743 66.0135
92.2236 109.744 65.7494
92.4312 109.039 66.3006
96.8086 109.337 65.5997
96.3046 109.289 66.1865
96.664 108.711 66.177
92.4598 110.571 65.4722
92.7843 109.654 66.1659
93.2284 110.43 65.8681
93.45 109.692 66.47
95.9963 110.172 65.6053
95.3551 110.178 66.1125
95.6831 109.447 66.4139
93.3337 111.127 65.4098
93.8719 110.377 66.1866
94.1471 110.936 65.6489
94.6161 110.328 66.2646
95.2001 110.748 65.6422
92.8528 105.413 66.5361
94.0967 105.344 66.7911
94.9663 105.247 66.6814
95.9837 105.089 66.4806
92.3443 106.263 66.5336
93.1889 106.083 66.8427
93.7171 105.763 67.1388
94.3244 105.772 67.1322
94.8052 106.028 66.8638
94.366 106.308 67.1926
95.7746 105.949 66.7106
96.804 106.024 66.3778
92.3263 107.427 66.5834
93.2676 107.015 66.8137
93.7902 106.354 67.1866
94.1093 106.896 66.9272
95.1518 107.012 66.8707
95.8713 106.769 66.7639
96.8854 106.819 66.3745
92.4061 108.167 66.5457
93.2334 107.943 66.7964
93.9956 107.643 66.8768
94.9225 107.729 66.8649
95.7272 107.588 66.7922
96.6883 107.764 66.491
93.2622 108.765 66.7135
93.9466 108.575 66.8124
94.7905 108.509 66.8035
95.6717 108.606 66.6826
94.0524 109.459 66.6664
94.917 109.237 66.6866
94.0418 106.019 67.4687
POLYGONS 720  2880
3 0 1 2
3 0 3 4
3 1 0 4
3 4 3 5
3 6 7 8
3 2 7 6
3 2 6 0
3 0 6 9
3 3 0 10
3 10 0 9
3 11 5 3
3 10 11 3
3 12 13 14
3 8 13 12
3 8 12 6
3 6 12 15
3 9 6 16
3 16 6 15
3 10 9 17
3 17 9 16
3 18 11 10
3 17 18 10
3 19 20 21
3 14 20 19
3 14 19 12
3 12 19 22
3 15 12 23
3 23 12 22
3 16 15 24
3 24 15 23
3 17 16 25
3 25 16 24
3 26 18 17
3 25 26 17
3 27 19 21
3 28 27 21
3 22 19 29
3 29 19 27
3 23 22 30
3 30 22 29
3 24 23 31
3 31 23 30
3 32 33 25
3 32 25 31
3 31 25 24
3 26 25 33
3 34 27 28
3 35 34 28
3 29 27 36
3 36 27 34
3 30 29 37
3 37 29 36
3 31 30 38
3 38 30 37
3 39 32 31
3 38 39 31
3 34 35 40
3 40 41 42
3 40 42 34
3 34 42 36
3 43 44 37
3 43 37 42
3 42 37 36
3 38 37 44
3 45 38 44
3 39 38 45
3 42 41 46
3 43 42 46
3 47 48 49
3 47 50 51
3 48 47 51
3 51 50 52
3 53 54 55
3 49 54 53
3 47 49 53
3 47 53 2
3 47 2 1
3 4 47 1
3 50 47 4
3 5 56 57
3 4 5 57
3 4 57 52
3 4 52 50
3 57 56 58
3 59 60 61
3 55 60 59
3 53 55 59
3 53 59 8
3 53 8 7
3 2 53 7
3 56 11 62
3 5 11 56
3 63 58 56
3 62 63 56
3 64 65 66
3 61 65 64
3 59 61 64
3 59 64 14
3 59 14 13
3 8 59 13
3 62 18 67
3 11 18 62
3 68 63 62
3 67 68 62
3 20 64 66
3 20 66 21
3 21 66 69
3 14 64 20
3 67 26 70
3 18 26 67
3 71 68 67
3 70 71 67
3 72 73 74
3 72 69 73
3 72 28 69
3 28 21 69
3 33 32 75
3 33 75 76
3 26 33 76
3 26 76 77
3 26 77 70
3 71 70 77
3 72 74 78
3 78 28 72
3 78 79 28
3 79 35 28
3 75 39 80
3 32 39 75
3 81 76 75
3 80 81 75
3 82 40 35
3 82 35 83
3 83 35 79
3 40 82 41
3 44 43 84
3 44 85 45
3 84 85 44
3 45 85 86
3 39 45 86
3 39 86 87
3 39 87 80
3 81 80 87
3 82 83 88
3 41 82 88
3 41 88 46
3 46 88 89
3 84 43 46
3 84 46 90
3 90 46 89
3 85 84 90
3 91 85 90
3 86 85 91
3 92 93 94
3 92 49 48
3 92 48 93
3 93 48 95
3 51 96 48
3 48 96 95
3 96 51 52
3 97 96 52
3 98 99 100
3 94 99 98
3 92 94 98
3 92 98 55
3 92 55 54
3 49 92 54
3 52 101 97
3 57 101 52
3 101 57 58
3 102 101 58
3 103 104 105
3 100 104 103
3 98 100 103
3 98 103 61
3 98 61 60
3 55 98 60
3 58 63 102
3 102 63 106
3 65 103 105
3 65 105 66
3 66 105 107
3 61 103 65
3 63 68 106
3 106 68 108
3 109 110 111
3 109 107 110
3 109 69 107
3 69 66 107
3 68 71 108
3 108 71 112
3 73 109 111
3 73 111 74
3 74 111 113
3 69 109 73
3 77 76 114
3 77 114 115
3 77 115 71
3 71 115 112
3 116 78 74
3 116 74 117
3 117 74 113
3 78 116 79
3 114 118 119
3 114 76 118
3 76 81 118
3 115 114 119
3 116 117 120
3 120 79 116
3 120 121 79
3 121 83 79
3 87 86 122
3 87 122 123
3 87 123 81
3 81 123 118
3 83 121 124
3 88 83 124
3 125 124 126
3 125 89 124
3 89 88 124
3 89 127 90
3 125 127 89
3 90 128 91
3 127 128 90
3 91 128 129
3 86 91 129
3 86 129 130
3 86 130 122
3 123 122 130
3 125 126 131
3 127 125 131
3 132 127 131
3 128 127 132
3 133 128 132
3 129 128 133
3 93 134 135
3 94 93 135
3 95 136 93
3 93 136 134
3 96 137 95
3 95 137 136
3 137 96 97
3 138 137 97
3 139 140 141
3 139 100 99
3 139 99 140
3 140 99 142
3 135 99 94
3 142 99 135
3 97 143 138
3 101 143 97
3 143 101 102
3 144 143 102
3 104 139 141
3 104 141 105
3 105 141 145
3 100 139 104
3 102 106 144
3 144 106 146
3 147 148 149
3 147 145 148
3 147 107 145
3 107 105 145
3 106 108 146
3 146 108 150
3 110 147 149
3 110 149 111
3 111 149 151
3 107 147 110
3 108 112 150
3 150 112 152
3 111 151 113
3 151 153 113
3 112 115 152
3 152 115 154
3 113 153 117
3 153 155 117
3 119 118 156
3 119 156 157
3 119 157 115
3 115 157 154
3 117 155 158
3 120 117 158
3 158 121 120
3 159 121 158
3 156 160 161
3 156 118 160
3 118 123 160
3 157 156 161
3 162 124 121
3 162 121 163
3 163 121 159
3 124 162 126
3 130 129 164
3 130 164 165
3 130 165 123
3 123 165 160
3 162 163 166
3 167 166 168
3 131 166 167
3 131 162 166
3 131 126 162
3 131 169 132
3 167 169 131
3 132 170 133
3 169 170 132
3 133 170 171
3 129 133 171
3 129 171 172
3 129 172 164
3 165 164 172
3 167 168 173
3 169 167 173
3 174 169 173
3 170 169 174
3 175 170 174
3 171 170 175
3 134 176 135
3 177 176 134
3 177 134 178
3 178 134 136
3 179 180 178
3 179 178 137
3 137 178 136
3 137 138 179
3 140 181 182
3 141 140 182
3 142 183 140
3 140 183 181
3 176 142 135
3 176 184 142
3 184 183 142
3 177 184 176
3 179 185 180
3 138 185 179
3 138 143 185
3 143 186 185
3 186 143 144
3 187 186 144
3 141 182 145
3 182 188 145
3 144 146 187
3 187 146 189
3 148 190 191
3 149 148 191
3 188 148 145
3 190 148 188
3 146 150 189
3 189 150 192
3 149 191 151
3 191 193 151
3 150 152 192
3 192 152 194
3 151 193 153
3 193 195 153
3 152 154 194
3 194 154 196
3 153 195 155
3 195 197 155
3 154 157 196
3 196 157 198
3 155 197 199
3 158 155 199
3 199 159 158
3 200 159 199
3 161 160 201
3 161 201 202
3 161 202 157
3 157 202 198
3 159 200 163
3 200 203 163
3 201 204 205
3 201 160 204
3 160 165 204
3 202 201 205
3 163 203 206
3 166 163 206
3 206 168 166
3 207 168 206
3 172 208 209
3 171 208 172
3 204 165 172
3 209 204 172
3 168 207 210
3 173 168 210
3 174 173 211
3 173 210 211
3 175 174 212
3 174 211 212
3 208 171 175
3 212 208 175
3 178 213 177
3 178 180 213
3 181 214 182
3 215 214 181
3 215 181 216
3 216 181 183
3 184 217 183
3 183 217 216
3 213 184 177
3 213 218 184
3 218 217 184
3 180 218 213
3 180 185 218
3 185 219 218
3 220 221 219
3 220 219 186
3 186 219 185
3 186 187 220
3 214 222 223
3 214 223 182
3 182 223 188
3 215 222 214
3 220 224 221
3 224 220 187
3 224 187 225
3 225 187 189
3 190 226 227
3 191 190 227
3 223 190 188
3 226 190 223
3 189 192 225
3 225 192 228
3 191 227 193
3 227 229 193
3 192 194 228
3 228 194 230
3 193 229 195
3 229 231 195
3 194 196 230
3 230 196 232
3 195 231 197
3 231 233 197
3 196 198 232
3 232 198 234
3 197 233 235
3 199 197 235
3 235 200 199
3 236 200 235
3 198 202 234
3 234 202 237
3 200 236 203
3 236 238 203
3 205 239 240
3 204 239 205
3 237 202 205
3 240 237 205
3 241 206 203
3 241 203 242
3 242 203 238
3 206 241 207
3 209 208 243
3 209 243 244
3 209 244 204
3 204 244 239
3 241 242 245
3 207 241 245
3 207 245 210
3 210 245 246
3 211 210 247
3 210 246 247
3 212 211 248
3 211 247 248
3 243 208 212
3 243 212 249
3 249 212 248
3 244 243 249
3 216 250 215
3 216 217 251
3 250 216 251
3 217 218 252
3 251 217 252
3 218 219 253
3 252 218 253
3 219 221 253
3 222 254 223
3 222 255 254
3 215 255 222
3 215 256 255
3 215 250 256
3 251 256 250
3 257 256 251
3 252 257 251
3 258 257 252
3 253 258 252
3 259 258 253
3 260 261 259
3 224 260 259
3 224 259 253
3 224 253 221
3 224 225 260
3 226 262 227
3 226 263 262
3 223 263 226
3 223 264 263
3 223 254 264
3 255 264 254
3 260 265 261
3 265 260 225
3 265 225 266
3 266 225 228
3 262 267 268
3 262 268 227
3 227 268 229
3 263 267 262
3 228 230 266
3 266 230 269
3 229 268 231
3 268 270 231
3 230 232 269
3 269 232 271
3 272 273 233
3 272 233 270
3 270 233 231
3 272 274 273
3 232 234 271
3 271 234 275
3 233 273 235
3 273 236 235
3 273 274 236
3 274 276 236
3 234 237 275
3 275 237 277
3 236 276 238
3 276 278 238
3 240 279 280
3 239 279 240
3 277 237 240
3 280 277 240
3 281 282 242
3 281 242 278
3 278 242 238
3 281 283 282
3 284 285 286
3 284 286 279
3 284 279 244
3 244 279 239
3 242 282 245
3 282 283 287
3 282 287 245
3 245 287 246
3 247 246 288
3 246 287 288
3 248 247 289
3 247 288 289
3 285 284 249
3 285 249 289
3 289 249 248
3 244 249 284
3 256 290 255
3 256 257 291
3 290 256 291
3 257 258 292
3 291 257 292
3 258 259 293
3 292 258 293
3 259 261 293
3 264 294 263
3 264 295 294
3 255 295 264
3 255 296 295
3 255 290 296
3 291 296 290
3 297 296 291
3 292 297 291
3 298 297 292
3 293 298 292
3 299 298 293
3 300 301 299
3 265 300 299
3 265 299 293
3 265 293 261
3 265 266 300
3 267 302 268
3 267 303 302
3 263 303 267
3 263 304 303
3 263 294 304
3 295 304 294
3 300 305 301
3 305 300 266
3 305 266 306
3 306 266 269
3 302 307 270
3 268 302 270
3 308 302 303
3 307 302 308
3 269 271 306
3 306 271 309
3 270 307 272
3 307 274 272
3 307 308 274
3 308 310 274
3 271 275 309
3 309 275 311
3 312 313 276
3 312 276 310
3 310 276 274
3 312 314 313
3 315 316 317
3 315 317 311
3 315 311 277
3 277 311 275
3 313 318 278
3 276 313 278
3 319 313 314
3 319 320 313
3 320 318 313
3 319 321 320
3 322 323 324
3 316 322 324
3 315 322 316
3 315 279 322
3 315 280 279
3 277 280 315
3 278 318 281
3 283 281 318
3 283 318 325
3 325 318 320
3 326 320 321
3 326 327 320
3 327 325 320
3 327 328 329
3 326 328 327
3 323 329 328
3 322 329 323
3 322 285 329
3 322 286 285
3 279 286 322
3 283 325 287
3 288 287 325
3 327 288 325
3 289 288 327
3 329 289 327
3 285 289 329
3 296 330 295
3 296 297 331
3 330 296 331
3 297 298 332
3 331 297 332
3 298 299 333
3 332 298 333
3 299 301 333
3 304 334 303
3 304 295 330
3 304 330 334
3 334 330 335
3 336 331 337
3 336 335 331
3 335 330 331
3 337 338 339
3 337 331 338
3 331 332 338
3 333 340 332
3 340 338 332
3 301 305 341
3 301 341 333
3 333 341 340
3 305 306 341
3 334 342 308
3 303 334 308
3 335 343 334
3 343 342 334
3 344 335 336
3 344 345 335
3 345 343 335
3 339 345 344
3 339 338 345
3 338 346 345
3 340 347 338
3 347 346 338
3 341 348 340
3 348 347 340
3 306 309 348
3 341 306 348
3 342 349 310
3 308 342 310
3 343 350 342
3 350 349 342
3 345 351 343
3 351 350 343
3 346 352 345
3 352 351 345
3 347 353 346
3 353 352 346
3 348 354 347
3 354 353 347
3 309 311 354
3 348 309 354
3 310 349 312
3 314 312 349
3 314 349 355
3 355 349 350
3 351 356 350
3 356 355 350
3 352 357 351
3 357 356 351
3 353 358 352
3 358 357 352
3 317 316 358
3 317 358 354
3 354 358 353
3 311 317 354
3 314 355 319
3 321 319 355
3 321 355 359
3 359 355 356
3 357 360 356
3 360 359 356
3 324 323 360
3 324 360 358
3 358 360 357
3 316 324 358
3 321 359 326
3 328 326 359
3 360 328 359
3 323 328 360
3 337 361 336
3 337 339 361
3 336 361 344
3 339 344 361
POINT_DATA 362
SCALARS Scalars float
LOOKUP_TABLE default
0.5
0.5
0.5
0.5
0.5
0.5
0.5
0.5
0.5
0.5
0.5
0.5
0.5
0.5
0.5
0.5
0.5
0.5
0.5
0.5
0.5
0.5
0.5
0.5
0.5
0.5
0.5
0.5
0.5
0.5
0.5
0.5
0.5
0.5
0.5
0.5
0.5
0.5
0.5
0.5
0.5
0.5
0.5
0.5
0.5
0.5
0.5
0.5
0.5
0.5
0.5
0.5
0.5
0.5
0.5
0.5
0.5
0.5
0.5
0.5
0.5
0.5
0.5
0.5
0.5
0.5
0.5
0.5
0.5
0.5
0.5
0.5
0.5
0.5
0.5
0.5
0.5
0.5
0.5
0.5
0.5
0.5
0.5
0.5
0.5
0.5
0.5
0.5
0.5
0.5
0.5
0.5
0.5
0.5
0.5
0.5
0.5
0.5
0.5
0.5
0.5
0.5
0.5
0.5
0.5
0.5
0.5
0.5
0.5
0.5
0.5
0.5
0.5
0.5
0.5
0.5
0.5
0.5
0.5
0.5
0.5
0.5
0.5
0.5
0.5
0.5
0.5
0.5
0.5
0.5
0.5
0.5
0.5
0.5
0.5
0.5
0.5
0.5
0.5
0.5
0.5
0.5
0.5
0.5
0.5
0.5
0.5
0.5
0.5
0.5
0.5
0.5
0.5
0.5
0.5
0.5
0.5
0.5
0.5
0.5
0.5
0.5
0.5
0.5
0.5
0.5
0.5
0.5
0.5
0.5
0.5
0.5
0.5
0.5
0.5
0.5
0.5
0.5
0.5
0.5
0.5
0.5
0.5
0.5
0.5
0.5
0.5
0.5
0.5
0.5
0.5
0.5
0.5
0.5
0.5
0.5
0.5
0.5
0.5
0.5
0.5
0.5
0.5
0.5
0.5
0.5
0.5
0.5
0.5
0.5
0.5
0.5
0.5
0.5
0.5
0.5
0.5
0.5
0.5
0.5
0.5
0.5
0.5
0.5
0.5
0.5
0.5
0.5
0.5
0.5
0.5
0.5
0.5
0.5
0.5
0.5
0.5
0.5
0.5
0.5
0.5
0.5
0.5
0.5
0.5
0.5
0.5
0.5
0.5
0.5
0.5
0.5
0.5
0.5
0.5
0.5
0.5
0.5
0.5
0.5
0.5
0.5
0.5
0.5
0.5
0.5
0.5
0.5
0.5
0.5
0.5
0.5
0.5
0.5
0.5
0.5
0.5
0.5
0.5
0.5
0.5
0.5
0.5
0.5
0.5
0.5
0.5
0.5
0.5
0.5
0.5
0.5
0.5
0.5
0.5
0.5
0.5
0.5
0.5
0.5
0.5
0.5
0.5
0.5
0.5
0.5
0.5
0.5
0.5
0.5
0.5
0.5
0.5
0.5
0.5
0.5
0.5
0.5
0.5
0.5
0.5
0.5
0.5
0.5
0.5
0.5
0.5
0.5
0.5
0.5
0.5
0.5
0.5
0.5
0.5
0.5
0.5
0.5
0.5
0.5
0.5
0.5
0.5
0.5
0.5
0.5
0.5
0.5
0.5
0.5
0.5
0.5
0.5
0.5
0.5
0.5
0.5
0.5
0.5
0.5
0.5
0.5
