# vtk DataFile Version 3.0
this file was written using fslvtkio
ASCII
DATASET POLYDATA
POINTS 348 float
108.587 116.909 65.3304
108.126 115.817 66.5939
107.067 117.035 66.2688
110.013 116.541 65.3787
109.374 115.182 66.2252
111.657 116.517 65.3859
111.114 115.162 65.8825
113.052 117.053 65.6184
112.689 115.475 65.8862
114.29 116.326 66.4643
106.65 118.651 65.1358
106.1 117.505 67.0205
105.381 118.763 66.2239
108.501 118.74 64.8954
109.873 118.333 64.9812
111.272 118.477 65.0848
112.558 118.709 65.4024
114.256 117.903 66.4592
104.995 119.987 65.236
104.168 119.525 67.2292
103.596 120.486 66.5045
106.571 120.171 64.8166
108.36 120.338 64.7299
109.768 120.323 64.846
111.357 120.476 65.2718
112.698 120.269 65.7615
113.809 119.351 66.3756
103.576 121.738 65.3301
102.765 121.365 66.8229
102.43 122.888 66.0046
105.067 121.902 64.7855
106.404 121.666 64.6825
108.142 122.078 64.7459
109.554 121.767 64.9216
111.187 122.107 65.4728
112.588 121.964 66.3742
103.27 123.616 65.3425
101.985 124.359 66.5123
104.79 123.346 64.8466
106.216 123.391 64.7398
107.802 123.561 64.9002
109.274 123.731 65.1969
111.017 123.831 66.1046
112.221 123.094 66.4259
103.1 125.023 65.6699
103.614 126.488 65.8751
104.514 125.184 65.1945
106.114 124.959 65.0091
107.774 125.174 65.2385
109.065 125.277 65.6498
110.445 125.127 66.3346
105.153 126.776 65.5743
105.627 128.137 66.106
106.622 126.816 65.6415
107.636 127.805 66.5309
108.41 126.484 65.9633
106.564 128.701 66.6047
113.879 111.175 67.4534
113.554 109.93 68.6885
112.539 111.057 68.134
115.234 111.036 67.7525
114.663 109.84 68.2805
116.21 110.466 68.7203
112.368 112.494 67.0256
111.585 111.249 68.8473
111.152 112.331 67.6826
113.958 112.916 66.9334
115.269 112.427 67.4748
116.417 111.86 68.6406
110.739 113.628 66.8345
109.973 112.898 68.1346
109.202 114.104 67.7114
112.081 113.834 66.468
113.6 114.228 66.5931
115.279 114.174 67.2931
116.25 113.536 68.3859
108.177 114.973 68.181
106.994 116.386 67.8246
115.067 115.792 67.053
116.171 115.054 68.3353
106.183 117.318 68.5188
105.181 118.565 68.3972
115.094 118.084 67.7528
115.734 116.747 68.0335
104.276 119.471 68.6569
103.277 120.691 68.3818
113.829 120.748 66.8986
114.847 119.477 67.9528
102.37 121.79 68.2473
101.821 123.059 67.5402
113.88 121.736 67.3448
114.577 121.069 68.4678
101.531 124.483 68.2607
112.221 124.018 66.9735
112.994 123.643 67.9189
113.888 122.446 68.5515
102.534 126.372 66.5773
101.606 125.929 67.6562
110.08 126.434 66.896
111.398 125.738 67.8062
112.254 124.652 67.9251
102.576 127.576 66.9645
101.559 127.715 68.1949
103.964 127.89 66.4072
108.709 127.647 66.8028
109.781 127.802 67.6029
110.74 127.017 68.0986
102.326 129.135 67.6849
101.654 129.127 68.8271
103.655 129.122 66.8833
105.411 129.627 66.9367
107.491 129.601 67.9941
108.478 128.817 67.9808
110.072 128.222 68.8584
102.465 130.346 68.4337
103.301 131.402 69.0568
103.743 130.637 67.6472
104.981 130.968 67.7032
106.431 130.542 67.9844
104.408 131.75 68.8005
115.684 109.083 69.1878
115.558 108.501 70.3669
114.581 108.839 70.0363
116.604 109.838 70.0325
113.665 109.24 70.3394
112.498 110.169 69.8037
116.686 111.173 69.8261
110.258 111.994 69.2911
110.501 111.587 70.502
109.176 113.182 69.7605
111.658 110.698 70.7688
116.69 112.662 69.9412
108.549 114.236 69.4907
116.569 113.996 69.6308
107.845 115.254 70.4195
107.328 115.935 69.6099
116.529 115.218 69.8903
105.803 118.017 69.3964
106.494 117.352 70.0339
115.673 118.099 68.9622
116.313 116.471 69.4711
103.939 120.132 69.5031
104.675 119.658 70.1702
105.678 118.524 70.396
115.204 119.443 69.5364
115.818 118.153 70.3766
101.999 123.263 68.9719
102.855 121.917 69.766
103.92 120.697 70.4561
114.667 121.322 69.9369
101.667 124.777 69.4992
102.4 123.604 70.513
113.42 123.722 69.6017
114.136 122.496 70.2578
101.971 125.156 70.7717
101.361 126.377 69.4565
111.862 126.096 69.0693
112.771 124.88 69.5805
101.318 127.908 69.6438
111.107 127.388 69.9428
111.941 126.521 70.6562
101.676 129.483 70.5623
108.3 129.809 68.9575
109.014 129.483 69.81
110.17 128.546 70.3923
102.151 130.475 70.1016
102.936 131.236 70.7334
105.919 131.445 68.7324
107.04 131.009 69.5085
108.039 130.425 70.3578
104.299 132.037 70.193
105.89 131.906 70.0602
116.32 108.982 71.1114
114.838 108.992 71.719
116.498 110.338 71.4206
113.601 109.419 72.0518
112.602 110.033 71.5312
116.525 111.543 71.5449
109.566 112.779 71.3384
110.567 111.872 72.1353
111.693 110.926 72.4488
116.534 112.923 71.5531
109.805 112.958 72.6279
108.812 114.083 71.713
116.468 114.323 71.5445
107.976 115.497 71.9061
107.177 116.621 71.3086
116.341 115.676 71.4276
106.434 118.061 71.6098
116.096 117.081 70.9625
115.373 118.194 71.9749
115.772 116.699 72.4027
105.765 119.204 72.0931
104.806 120.354 71.9349
115.06 119.831 71.2435
104.03 121.408 72.0069
103.184 122.25 71.1866
114.641 121.087 71.7278
102.675 123.929 71.6706
113.293 123.732 71.6514
113.89 122.489 72.1141
101.701 126.512 71.0737
102.473 125.389 72.1351
112.676 125.12 71.4993
102.149 127.134 72.3707
101.463 127.664 70.908
110.914 127.622 71.8507
111.708 126.543 72.1357
101.796 129.032 71.743
108.892 129.854 71.4248
109.897 128.839 72.1475
102.549 130.309 72.0002
103.536 131.263 72.2827
107.208 131.229 70.9725
107.814 130.555 72.2758
104.166 131.95 71.5188
105.637 132.02 71.2964
116.008 109.403 72.1129
114.529 109.914 73.0909
112.819 110.421 73.1247
115.653 110.471 72.8082
115.082 111.309 73.9811
112.014 111.171 73.7914
110.987 112.278 74.0178
116.028 112.009 72.7787
115.386 113.02 73.9847
110.247 113.255 74.2253
109.155 114.223 73.2129
116.08 113.383 72.7907
115.29 114.601 74.1215
107.542 116.767 72.7963
108.507 115.799 73.6578
115.95 115.045 72.7693
115.302 116.643 73.4822
107.964 117.093 74.1582
106.964 118.23 73.3678
115 118.225 73.3419
105.544 120.002 72.8982
106.269 119.71 73.7036
114.703 119.828 72.9962
103.661 122.586 72.7047
104.835 121.996 74.0339
105.632 120.786 73.9551
114.254 121.137 73.0306
113.377 122.312 73.6149
113.782 120.797 74.314
103.895 123.461 73.9872
103.12 123.843 72.7691
112.946 123.701 73.1203
103.075 125.472 73.5986
112.301 125.215 72.8188
111.165 126.39 73.7154
111.779 125.022 74.2425
102.252 128.24 72.762
103.027 127.39 73.7139
110.571 127.551 73.4928
102.319 129.367 72.7526
103.206 129.122 73.6681
108.798 129.636 73.2014
109.854 128.653 73.3284
104.004 130.536 73.3566
104.952 131.434 72.7948
105.828 130.766 73.5982
106.473 131.436 72.2755
107.302 130.126 74.0474
114.034 110.465 73.9837
111.817 111.824 74.7221
112.794 111.483 74.8582
113.906 111.56 74.8694
114.716 113.169 75.0377
109.776 114.318 74.7305
111.058 113.617 75.6233
111.87 112.7 75.4275
114.764 115.094 75.0721
110.137 114.986 75.9687
108.987 115.809 74.8626
114.673 116.676 74.8394
107.398 118.572 74.7542
108.515 117.312 75.4357
114.398 117.948 74.8088
113.415 118.817 75.9432
113.786 117.144 76.0629
108.034 118.82 76.108
106.844 120.035 75.2968
114.041 119.374 74.757
113.202 120.53 75.5182
105.453 121.747 74.8214
106.258 121.496 75.6695
112.755 122.287 75.0579
103.726 124.802 74.5068
104.674 123.601 75.2028
105.402 122.755 75.5827
112.358 123.698 74.5616
111.229 124.637 75.6431
112.046 123.367 75.4839
103.76 126.562 74.8529
104.801 125.443 75.9239
110.53 126.578 74.9747
104.01 128.352 74.6925
104.907 126.945 75.9529
109.662 128.228 74.412
108.974 127.81 75.7326
109.875 127.295 75.3534
104.608 129.721 74.3854
105.635 128.407 75.7476
106.186 129.437 74.9967
107.333 128.719 75.7107
108.04 129.277 74.7191
113.37 112.612 75.7952
112.494 114.032 76.4519
114.058 114.177 75.9641
109.741 116.022 76.3786
111.121 115.239 76.9469
112.21 115.285 76.9434
113.682 115.674 76.3748
112.726 117.285 77.2264
110.276 116.903 77.478
109.243 117.182 76.5587
112.485 119.082 77.065
107.674 119.87 76.5775
108.949 118.961 77.3058
112.11 120.979 76.7983
111.035 121.413 77.5605
111.45 120.013 77.6831
108.501 120.272 77.7066
107.104 121.246 76.8064
111.894 122.545 76.3195
110.8 122.765 77.3244
105.579 124.327 76.5533
106.533 122.683 76.9451
110.79 123.998 76.6955
109.504 124.671 77.3276
109.387 123.34 77.8792
106.002 126.161 76.7208
106.58 124.529 77.4204
109.895 126.169 76.2705
108.816 126.158 77.1623
106.483 127.637 76.4443
107.368 125.958 77.4435
108.293 127.26 76.5514
111.596 116.919 77.7706
110.135 118.395 77.9198
111.616 118.556 77.8383
109.794 120.223 78.2108
107.964 121.774 77.9637
109.407 122.086 78.2571
107.913 123.275 78.0013
108.019 124.823 77.8796
POLYGONS 692  2768
3 0 1 2
3 0 3 4
3 1 0 4
3 3 5 6
3 4 3 6
3 5 7 8
3 6 5 8
3 8 7 9
3 10 11 12
3 2 11 10
3 2 10 0
3 0 10 13
3 3 0 14
3 14 0 13
3 5 3 15
3 15 3 14
3 7 5 16
3 16 5 15
3 17 9 7
3 16 17 7
3 18 19 20
3 12 19 18
3 12 18 10
3 10 18 21
3 13 10 22
3 22 10 21
3 14 13 23
3 23 13 22
3 15 14 24
3 24 14 23
3 25 26 16
3 25 16 24
3 24 16 15
3 17 16 26
3 27 28 29
3 20 28 27
3 20 27 18
3 18 27 30
3 21 18 31
3 31 18 30
3 22 21 32
3 32 21 31
3 23 22 33
3 33 22 32
3 24 23 34
3 34 23 33
3 35 25 24
3 34 35 24
3 36 27 29
3 37 36 29
3 30 27 38
3 38 27 36
3 31 30 39
3 39 30 38
3 32 31 40
3 40 31 39
3 33 32 41
3 41 32 40
3 42 43 34
3 42 34 41
3 41 34 33
3 35 34 43
3 36 37 44
3 44 45 46
3 44 46 36
3 36 46 38
3 39 38 47
3 47 38 46
3 40 39 48
3 48 39 47
3 49 50 41
3 49 41 48
3 48 41 40
3 42 41 50
3 46 45 51
3 51 52 53
3 51 53 46
3 46 53 47
3 54 55 48
3 54 48 53
3 53 48 47
3 49 48 55
3 53 52 56
3 54 53 56
3 57 58 59
3 57 60 61
3 58 57 61
3 61 60 62
3 63 64 65
3 59 64 63
3 59 63 57
3 57 63 66
3 60 57 67
3 67 57 66
3 68 62 60
3 67 68 60
3 69 70 71
3 65 70 69
3 65 69 63
3 63 69 72
3 66 63 73
3 73 63 72
3 67 66 74
3 74 66 73
3 75 68 67
3 74 75 67
3 1 76 77
3 2 1 77
3 71 4 69
3 71 76 4
3 76 1 4
3 6 69 4
3 72 69 6
3 8 72 6
3 73 72 8
3 9 73 8
3 9 78 73
3 78 74 73
3 79 75 74
3 78 79 74
3 11 80 81
3 12 11 81
3 77 11 2
3 80 11 77
3 78 82 83
3 78 9 82
3 9 17 82
3 79 78 83
3 19 84 85
3 20 19 85
3 81 19 12
3 84 19 81
3 26 25 86
3 26 86 87
3 26 87 17
3 17 87 82
3 28 88 89
3 29 28 89
3 85 28 20
3 88 28 85
3 86 35 90
3 25 35 86
3 91 87 86
3 90 91 86
3 29 89 37
3 89 92 37
3 43 42 93
3 43 93 94
3 35 43 94
3 35 94 95
3 35 95 90
3 91 90 95
3 96 44 37
3 96 37 97
3 97 37 92
3 44 96 45
3 50 49 98
3 50 98 99
3 42 50 99
3 42 99 100
3 42 100 93
3 94 93 100
3 101 96 97
3 102 101 97
3 45 103 51
3 45 96 103
3 96 101 103
3 51 103 52
3 55 54 104
3 55 98 49
3 55 104 98
3 104 105 98
3 106 99 98
3 105 106 98
3 107 101 102
3 108 107 102
3 103 101 109
3 109 101 107
3 52 110 56
3 52 103 110
3 103 109 110
3 56 110 111
3 54 56 111
3 54 111 112
3 54 112 104
3 105 104 112
3 113 105 112
3 106 105 113
3 107 108 114
3 114 115 116
3 114 116 107
3 107 116 109
3 117 118 110
3 117 110 116
3 116 110 109
3 111 110 118
3 116 115 119
3 117 116 119
3 120 121 122
3 121 120 123
3 58 124 125
3 59 58 125
3 122 61 120
3 122 124 61
3 124 58 61
3 120 61 62
3 120 62 123
3 123 62 126
3 127 128 129
3 127 65 64
3 127 64 128
3 128 64 130
3 125 64 59
3 130 64 125
3 62 68 126
3 126 68 131
3 70 127 129
3 70 129 71
3 71 129 132
3 65 127 70
3 68 75 131
3 131 75 133
3 76 134 135
3 77 76 135
3 132 76 71
3 134 76 132
3 75 79 133
3 133 79 136
3 80 137 81
3 80 138 137
3 80 77 138
3 77 135 138
3 83 82 139
3 83 139 140
3 83 140 79
3 79 140 136
3 84 141 85
3 84 142 141
3 81 142 84
3 81 143 142
3 81 137 143
3 138 143 137
3 139 144 145
3 139 82 144
3 82 87 144
3 140 139 145
3 88 146 89
3 88 147 146
3 85 147 88
3 85 148 147
3 85 141 148
3 142 148 141
3 87 91 144
3 144 91 149
3 146 150 92
3 89 146 92
3 151 146 147
3 150 146 151
3 95 152 153
3 94 152 95
3 149 91 95
3 153 149 95
3 150 154 155
3 150 155 92
3 92 155 97
3 151 154 150
3 100 99 156
3 100 156 157
3 100 157 94
3 94 157 152
3 97 155 102
3 155 158 102
3 156 159 160
3 156 99 159
3 99 106 159
3 157 156 160
3 102 158 108
3 158 161 108
3 112 111 162
3 163 112 162
3 163 164 112
3 164 113 112
3 159 106 113
3 164 159 113
3 108 161 165
3 114 108 165
3 165 115 114
3 166 115 165
3 118 117 167
3 118 167 168
3 111 118 168
3 111 168 169
3 111 169 162
3 163 162 169
3 115 166 170
3 119 115 170
3 167 117 119
3 167 119 171
3 171 119 170
3 168 167 171
3 121 172 173
3 122 121 173
3 172 121 123
3 174 172 123
3 124 175 176
3 125 124 176
3 173 124 122
3 175 124 173
3 123 126 174
3 174 126 177
3 128 178 129
3 179 178 128
3 179 128 180
3 180 128 130
3 176 130 125
3 180 130 176
3 126 131 177
3 177 131 181
3 178 182 183
3 178 183 129
3 129 183 132
3 179 182 178
3 131 133 181
3 181 133 184
3 134 185 186
3 135 134 186
3 183 134 132
3 185 134 183
3 133 136 184
3 184 136 187
3 135 186 138
3 186 188 138
3 189 190 191
3 189 191 187
3 189 187 140
3 140 187 136
3 143 192 193
3 142 143 193
3 188 143 138
3 192 143 188
3 145 190 189
3 145 144 190
3 144 194 190
3 140 145 189
3 148 195 196
3 147 148 196
3 193 148 142
3 195 148 193
3 144 149 194
3 194 149 197
3 147 196 151
3 196 198 151
3 153 199 200
3 152 199 153
3 197 149 153
3 200 197 153
3 154 201 155
3 154 202 201
3 154 151 202
3 151 198 202
3 152 157 199
3 199 157 203
3 201 204 205
3 201 205 155
3 155 205 158
3 202 204 201
3 160 206 207
3 159 206 160
3 203 157 160
3 207 203 160
3 158 205 161
3 205 208 161
3 164 209 210
3 163 209 164
3 206 159 164
3 210 206 164
3 161 208 211
3 165 161 211
3 211 166 165
3 212 166 211
3 169 213 214
3 168 213 169
3 209 163 169
3 214 209 169
3 166 212 215
3 170 166 215
3 171 170 216
3 170 215 216
3 213 168 171
3 216 213 171
3 172 217 173
3 172 174 217
3 175 218 219
3 176 175 219
3 173 218 175
3 173 220 218
3 173 217 220
3 221 218 220
3 174 177 220
3 217 174 220
3 180 222 223
3 179 180 223
3 219 180 176
3 222 180 219
3 224 221 220
3 225 221 224
3 177 181 224
3 220 177 224
3 182 226 227
3 183 182 227
3 223 182 179
3 226 182 223
3 228 225 224
3 229 225 228
3 181 184 228
3 224 181 228
3 185 230 186
3 185 231 230
3 185 183 231
3 183 227 231
3 232 229 228
3 233 229 232
3 184 187 232
3 228 184 232
3 230 234 235
3 230 235 186
3 186 235 188
3 231 234 230
3 191 233 232
3 191 190 233
3 190 236 233
3 187 191 232
3 192 237 193
3 192 238 237
3 192 188 238
3 188 235 238
3 190 194 236
3 236 194 239
3 195 240 196
3 195 241 240
3 193 241 195
3 193 242 241
3 193 237 242
3 238 242 237
3 243 244 245
3 243 245 239
3 243 239 197
3 197 239 194
3 240 246 247
3 240 247 196
3 196 247 198
3 241 246 240
3 200 244 243
3 200 199 244
3 199 248 244
3 197 200 243
3 198 247 202
3 247 249 202
3 250 251 252
3 250 252 248
3 250 248 203
3 203 248 199
3 204 253 205
3 204 254 253
3 204 202 254
3 202 249 254
3 207 251 250
3 207 206 251
3 206 255 251
3 203 207 250
3 253 256 208
3 205 253 208
3 257 253 254
3 256 253 257
3 210 258 259
3 209 258 210
3 255 206 210
3 259 255 210
3 208 256 211
3 212 260 261
3 211 260 212
3 211 257 260
3 211 256 257
3 261 262 263
3 260 262 261
3 263 214 213
3 263 262 214
3 262 264 214
3 258 209 214
3 264 258 214
3 212 261 215
3 216 215 261
3 263 216 261
3 213 216 263
3 218 265 219
3 218 221 265
3 222 266 223
3 222 267 266
3 219 267 222
3 219 268 267
3 219 265 268
3 268 265 221
3 268 221 269
3 269 221 225
3 226 270 227
3 226 271 270
3 223 271 226
3 223 272 271
3 223 266 272
3 267 272 266
3 225 229 269
3 269 229 273
3 270 274 275
3 270 275 227
3 227 275 231
3 271 274 270
3 229 233 273
3 273 233 276
3 234 277 235
3 234 278 277
3 234 231 278
3 231 275 278
3 279 280 281
3 279 281 276
3 279 276 236
3 236 276 233
3 277 282 283
3 277 283 235
3 235 283 238
3 278 282 277
3 284 280 279
3 285 280 284
3 236 239 284
3 279 236 284
3 242 286 241
3 242 287 286
3 242 238 287
3 238 283 287
3 245 285 284
3 245 244 285
3 244 288 285
3 239 245 284
3 246 289 247
3 246 290 289
3 241 290 246
3 241 291 290
3 241 286 291
3 287 291 286
3 292 293 294
3 292 294 288
3 292 288 248
3 248 288 244
3 289 295 249
3 247 289 249
3 296 289 290
3 295 289 296
3 252 293 292
3 252 251 293
3 251 297 293
3 248 252 292
3 295 298 254
3 249 295 254
3 299 295 296
3 298 295 299
3 300 301 302
3 300 302 297
3 300 297 255
3 255 297 251
3 298 303 257
3 254 298 257
3 304 298 299
3 304 305 298
3 305 303 298
3 305 306 307
3 304 306 305
3 301 307 306
3 300 307 301
3 300 258 307
3 300 259 258
3 255 259 300
3 257 303 260
3 262 260 303
3 305 262 303
3 264 262 305
3 307 264 305
3 258 264 307
3 268 308 267
3 268 269 308
3 272 309 271
3 272 267 308
3 272 308 309
3 309 308 310
3 269 273 310
3 308 269 310
3 274 311 275
3 274 312 311
3 271 312 274
3 271 313 312
3 271 309 313
3 313 314 315
3 313 309 314
3 309 310 314
3 273 276 314
3 310 273 314
3 311 316 317
3 311 317 275
3 275 317 278
3 312 316 311
3 281 315 314
3 281 280 315
3 280 318 315
3 276 281 314
3 282 319 283
3 282 320 319
3 282 278 320
3 278 317 320
3 321 322 323
3 321 323 318
3 321 318 285
3 285 318 280
3 319 324 325
3 319 325 283
3 283 325 287
3 320 324 319
3 326 322 321
3 327 322 326
3 285 288 326
3 321 285 326
3 291 328 290
3 291 329 328
3 291 287 329
3 287 325 329
3 330 331 332
3 327 330 332
3 326 330 327
3 326 293 330
3 326 294 293
3 288 294 326
3 328 333 296
3 290 328 296
3 334 328 329
3 333 328 334
3 335 331 330
3 336 331 335
3 293 297 335
3 330 293 335
3 333 337 299
3 296 333 299
3 338 333 334
3 338 339 333
3 339 337 333
3 336 339 338
3 335 339 336
3 335 301 339
3 335 302 301
3 297 302 335
3 299 337 304
3 306 304 337
3 339 306 337
3 301 306 339
3 313 340 312
3 313 315 340
3 316 341 317
3 316 312 340
3 316 340 341
3 341 340 342
3 315 318 342
3 340 315 342
3 341 343 320
3 317 341 320
3 323 322 343
3 323 343 342
3 342 343 341
3 318 323 342
3 324 344 325
3 324 320 343
3 324 343 344
3 344 343 345
3 322 327 345
3 343 322 345
3 344 346 329
3 325 344 329
3 332 331 346
3 332 346 345
3 345 346 344
3 327 332 345
3 346 347 334
3 329 346 334
3 331 336 347
3 346 331 347
3 334 347 338
3 336 338 347
POINT_DATA 348
SCALARS Scalars float
LOOKUP_TABLE default
50
50
50
50
50
50
50
50
50
50
50
50
50
50
50
50
50
50
50
50
50
50
50
50
50
50
50
50
50
50
50
50
50
50
50
50
50
50
50
50
50
50
50
50
50
50
50
50
50
50
50
50
50
50
50
50
50
50
50
50
50
50
50
50
50
50
50
50
50
50
50
50
50
50
50
50
50
50
50
50
50
50
50
50
50
50
50
50
50
50
50
50
50
50
50
50
50
50
50
50
50
50
50
50
50
50
50
50
50
50
50
50
50
50
50
50
50
50
50
50
50
50
50
50
50
50
50
50
50
50
50
50
50
50
50
50
50
50
50
50
50
50
50
50
50
50
50
50
50
50
50
50
50
50
50
50
50
50
50
50
50
50
50
50
50
50
50
50
50
50
50
50
50
50
50
50
50
50
50
50
50
50
50
50
50
50
50
50
50
50
50
50
50
50
50
50
50
50
50
50
50
50
50
50
50
50
50
50
50
50
50
50
50
50
50
50
50
50
50
50
50
50
50
50
50
50
50
50
50
50
50
50
50
50
50
50
50
50
50
50
50
50
50
50
50
50
50
50
50
50
50
50
50
50
50
50
50
50
50
50
50
50
50
50
50
50
50
50
50
50
50
50
50
50
50
50
50
50
50
50
50
50
50
50
50
50
50
50
50
50
50
50
50
50
50
50
50
50
50
50
50
50
50
50
50
50
50
50
50
50
50
50
50
50
50
50
50
50
50
50
50
50
50
50
50
50
50
50
50
50
50
50
50
50
50
50
50
50
50
50
50
50
50
50
50
50
50
50
