# vtk DataFile Version 4.0
vtk output
ASCII
DATASET POLYDATA
POINTS 998 float
114.82 115.036 44.4041 114.326 113.616 45.1381 113.753 114.941 44.6486 
116.215 114.788 44.5074 115.57 113.502 45.0359 117.318 114.507 44.7586 
116.885 113.472 45.1378 118.152 113.69 45.4854 113.342 116.417 44.3918 
112.555 115.332 44.9983 112.071 116.697 44.8923 114.65 116.177 44.1971 
116.017 116.063 44.2613 117.273 115.707 44.578 118.335 114.977 45.2047 
112.808 117.664 44.5381 111.567 118.096 45.2888 114.035 117.364 44.2135 
115.687 117.153 44.1841 117 116.987 44.5131 118.224 116.462 45.0916 
112.536 118.976 45.0298 111.364 119.141 45.9371 113.747 118.572 44.4253 
115.178 118.258 44.2704 116.488 118.252 44.5055 117.895 117.989 45.2886 
112.302 119.619 45.8845 113.455 120.122 45.9652 113.403 119.501 44.9529 
114.931 119.238 44.543 116.098 119.294 44.6676 117.182 119.005 44.9667 
114.601 120.04 45.1661 115.732 120.085 45.1999 116.6 111.314 46.2711 
116.629 110.212 46.7164 115.469 110.77 46.6186 118.454 110.917 46.6224 
117.896 109.927 47.0066 119.535 110.878 47.0019 119.294 109.514 47.6351 
120.395 110.043 47.9385 112.864 112.565 46.1315 112.787 111.651 46.6401 
111.852 112.269 46.689 114.807 112.126 45.9352 113.78 111.252 46.6981 
116.258 112.553 45.6263 118.159 112.39 46.0799 119.493 112.474 46.5596 
120.611 111.762 47.4718 111.799 113.894 45.9211 110.734 113.095 46.8004 
110.389 114.594 46.3118 113.047 113.843 45.4689 119.252 113.804 46.1921 
120.478 113.345 47.2094 111.33 115.476 45.6043 110.124 116.065 46.2034 
119.147 115.411 45.8545 120.177 114.767 47.0595 110.829 117.125 45.7413 
109.542 117.522 46.6918 118.99 116.867 45.8729 119.686 116.302 46.6688 
110.567 118.563 46.3222 109.658 118.776 47.2447 118.767 117.926 46.0503 
119.41 117.485 46.9138 110.816 119.529 47.0514 112.488 119.861 47.0804 
113.772 120.172 46.9955 116.858 119.811 45.3619 117.805 119.088 45.8865 
118.623 118.684 46.8979 114.574 120.448 46.205 115.655 120.406 46.2194 
116.773 120.113 46.013 116.152 109.217 47.489 115.575 107.868 48.595 
114.761 108.801 48.1344 117.561 108.817 47.7299 116.789 107.84 48.4187 
118.721 108.476 48.0657 118.42 107.593 48.7324 119.597 108.197 48.6075 
112.633 110.682 47.4711 112.204 109.356 48.6108 111.318 110.403 48.2267 
114.261 109.981 47.4621 113.415 109.203 48.2983 121.339 110.482 48.5326 
121.025 109.024 49.041 122.02 110.01 49.6835 109.494 112.013 48.0431 
108.976 111.117 48.9184 108.263 112.462 48.4302 110.774 111.703 47.5986 
110.126 110.741 48.6571 121.298 112.179 48.1236 121.864 111.468 49.1557 
109.248 113.601 47.4278 108.018 113.738 48.1017 121.16 113.791 48.0643 
121.919 112.881 49.3917 108.044 115.137 47.753 106.93 114.453 48.6743 
106.713 115.844 48.5211 109.198 114.982 47.0082 120.829 115.2 48.133 
121.483 114.509 49.2594 107.466 116.792 48.0433 106.637 116.758 48.4438 
108.783 116.489 47.1284 120.119 116.362 47.9327 120.858 115.818 49.412 
106.83 117.531 48.7404 107.989 118.498 48.4269 108.3 117.802 47.6848 
119.376 117.872 47.9074 109.362 119.206 47.9841 110.523 119.574 48.1954 
112.036 119.648 48.1814 113.727 119.733 48.3209 115.114 120.199 47.223 
115.65 119.711 48.1469 116.383 120.025 47.1798 117.117 119.418 47.9912 
117.544 119.612 46.7136 118.575 118.687 47.881 114.297 106.523 49.9885 
114.258 105.686 50.655 113.26 106.212 50.7084 115.789 106.647 49.5343 
115.216 105.574 50.5328 117.402 106.519 49.5213 116.889 105.513 50.3706 
119.418 106.87 49.4722 118.55 105.839 50.1721 120.839 106.76 50.0816 
120.512 105.73 50.7224 121.866 106.436 50.9592 110.861 108.102 50.207 
110.606 107.397 50.9218 109.733 108.139 50.9218 112.53 107.914 49.6375 
111.706 107.051 50.7536 114.238 107.719 49.1548 120.735 107.854 49.3978 
121.977 107.846 50.2865 107.956 110.246 50.3025 107.406 109.897 51.414 
106.789 110.79 50.8827 109.437 109.585 49.9123 108.573 108.996 51.3589 
110.936 109.173 49.3505 122.836 109.963 50.7544 122.36 108.944 50.3632 
123.362 108.999 51.9545 106.897 111.535 50.0395 105.813 111.757 51.1948 
105.634 112.508 50.5087 107.97 111.244 49.441 122.367 111.663 50.6304 
123.244 110.288 51.7728 105.969 113.182 49.8256 105.016 113.812 50.4473 
106.987 113.013 49.1383 122.026 113.287 50.4123 105.982 114.857 49.3237 
105.069 115.392 49.992 121.534 114.742 50.4336 106.081 116.578 49.2545 
105.211 116.766 50.1648 119.753 117.033 49.2483 120.74 115.784 50.5045 
106.191 117.584 49.8704 107.083 118.348 49.1838 107.304 118.571 50.0392 
113.041 119.224 49.313 111.597 119.273 49.4127 112.211 118.593 50.8032 
114.141 118.61 50.484 114.817 119.171 49.3087 115.644 118.431 50.5052 
116.284 118.991 49.2415 117.103 118.24 50.2699 117.589 118.698 49.1323 
118.517 117.644 50.1629 118.846 118.06 49.0274 108.148 118.994 49.2533 
109.126 119.231 49.4111 110.415 119.409 49.3349 118.177 103.186 51.9763 
118.318 102.123 52.6776 117.211 102.755 52.4197 119.554 103.308 51.9789 
119.675 101.895 52.9708 120.651 102.53 52.8324 114.28 104.815 51.5524 
114.407 103.807 52.3396 113.434 104.328 52.4099 116.409 104.084 51.5571 
115.406 103.448 52.3753 117.655 104.497 51.1233 119.025 104.608 51.1362 
121.042 103.524 52.3199 120.361 104.368 51.5621 121.756 104.422 52.1491 
110.712 106.58 51.7585 110.81 105.469 52.7665 110.1 106.104 52.767 
112.584 105.58 51.6501 111.74 104.994 52.7732 122.879 106.722 51.8 
122.08 105.547 51.7231 123.347 105.782 52.9179 109.396 107.499 51.9655 
109.056 106.945 53.0984 108.329 108.158 52.9083 123.087 107.999 51.6483 
123.597 107.055 53.0155 107.424 109.526 52.758 106.579 110.535 52.2651 
123.716 108.769 53.3385 105.801 111.451 52.5435 104.985 112.709 51.5982 
122.897 111.596 51.8584 123.465 110.295 53.1611 104.416 113.926 51.1897 
104.392 113.682 52.1792 103.907 114.847 51.7749 122.158 112.993 51.6218 
122.916 111.797 52.9682 104.369 115.074 50.7477 103.965 115.737 51.5088 
121.589 114.426 51.5965 104.478 116.228 50.7622 104.122 116.42 51.7076 
119.564 116.827 50.4562 118.376 117.02 51.4286 119.54 116.04 51.7305 
120.586 115.324 51.8622 105.017 117.262 51.072 105.968 117.666 51.3304 
107.142 118.044 51.1735 108.206 118.73 50.5116 108.34 118.02 51.8037 
109.445 118.697 50.8376 110.478 118.205 51.6496 110.751 118.835 50.5636 
111.991 118.009 51.821 113.637 117.906 51.7795 115.495 117.672 51.7848 
117.092 117.434 51.6008 118.019 101.231 53.4878 118.186 100.22 54.3988 
116.953 101.136 53.8745 119.229 100.98 53.638 119.439 100.011 54.5368 
120.412 100.702 54.1295 114.536 102.926 53.232 114.617 101.866 54.1194 
113.771 102.208 54.3777 116.254 102.285 53.1399 115.597 101.564 54.0328 
121.943 103.089 53.1623 120.998 101.681 53.6637 123.073 103.157 54.0779 
122.387 101.736 54.3908 123.296 102.069 54.9561 111.1 104.523 53.763 
111.193 103.957 55.0351 110.183 105.022 54.7759 112.594 103.609 53.7544 
112.232 103.059 54.7753 122.667 104.349 53.0483 123.65 104.437 54.3099 
109.688 105.853 53.886 109.433 105.932 54.9475 108.8 106.863 54.0426 
123.905 105.941 54.3016 108.323 108.172 54.1062 123.894 107.61 54.4991 
107.596 109.51 54.0466 106.885 110.572 53.6634 123.754 109.038 54.6593 
106.005 111.714 53.7241 105.213 112.413 52.9105 123.297 110.717 54.0559 
104.048 114.527 52.5928 104.971 113.53 53.31 121.893 113.085 53.1873 
122.827 111.972 53.6523 104.661 114.63 53.424 104.048 115.487 52.6613 
117.978 115.184 53.652 116.625 115.667 53.7522 117.254 114.519 54.7014 
118.957 113.962 54.5956 119.521 115.091 53.0018 120.62 113.731 53.824 
121.06 114.324 52.7148 104.265 116.311 52.6683 104.673 117.038 51.9726 
104.951 116.574 53.0441 109.677 117.459 52.6104 107.992 117.336 52.7668 
108.781 116.69 53.4645 110.071 116.507 53.6166 111.138 117.203 52.8632 
111.801 116.286 53.8044 112.952 117.173 52.7765 113.559 116.286 53.6895 
114.589 117.127 52.6275 115.113 116.187 53.5903 116.531 116.766 52.5658 
118.37 116.162 52.4189 105.534 117.285 52.2906 106.95 117.503 52.3864 
116.689 99.2337 55.6504 116.934 98.292 56.2125 115.821 98.8523 56.1601 
118.728 99.0654 55.4626 118.067 98.2523 56.1361 120.607 99.0303 55.6188 
119.815 98.0466 56.3676 121.93 99.0776 56.1699 121.235 97.7262 57.007 
122.514 98.2852 57.2126 114.845 100.779 55.1601 114.74 99.3273 56.4061 
113.966 100.373 56.0222 116.778 100.199 54.8793 121.524 100.44 54.9224 
123.252 99.563 56.7419 122.763 100.618 55.4767 123.755 101.217 56.1043 
113.385 101.676 55.4052 113.038 100.647 56.758 112.504 101.844 56.5885 
123.961 103.246 55.4082 111.726 103.072 56.1798 110.451 104.911 56.1097 
124.031 104.872 55.5956 109.745 106.144 56.2565 108.896 106.953 55.2412 
124.036 106.556 55.7611 108.692 108.147 55.5276 123.875 107.811 55.9156 
107.552 110.09 54.7154 108.427 109.651 55.4863 123.415 109.489 55.7257 
105.777 112.891 54.1938 106.869 111.771 54.7761 107.68 110.827 55.105 
122.665 111.55 54.4347 122.189 111.193 55.5485 122.922 110.614 55.4389 
105.738 114.114 54.1683 106.625 112.908 54.9814 120.063 112.912 55.1526 
118.749 112.918 55.8053 119.808 112.345 55.9526 120.889 111.815 55.8701 
121.536 112.571 54.4896 104.983 115.592 53.5126 105.936 115.558 53.863 
107.004 114.063 54.9098 107.216 115.324 54.283 108.433 114.595 54.9929 
108.715 115.772 54.2486 110.109 114.591 55.1743 110.795 115.478 54.5629 
111.694 114.349 55.4182 112.461 115.305 54.6671 113.701 114.209 55.5175 
114.133 115.082 54.7814 115.404 114.173 55.4812 115.656 115.093 54.5954 
117.544 113.586 55.5923 105.895 116.628 53.2888 107.247 116.387 53.6583 
116.869 97.2908 57.1027 116.477 95.9013 58.2323 115.7 96.8912 57.7568 
118.248 97.0409 57.1181 117.543 95.9594 57.9969 119.956 97.0364 57.219 
119.065 95.8952 58.0235 120.908 96.7889 57.5831 120.598 95.9511 58.2679 
121.721 96.4173 58.3672 114.014 98.0057 57.8392 113.583 97.3315 58.5347 
112.853 98.2002 58.5363 115.138 98.2818 57.0287 114.502 96.8686 58.4111 
123.148 98.366 57.5568 122.751 97.3055 58.6224 123.615 98.4946 58.1087 
113.573 99.2405 57.407 112.581 100.42 57.7681 124.34 101.665 56.7185 
124.103 100.101 57.319 124.673 100.374 58.3066 112.239 102.447 57.5498 
124.466 103.045 56.5439 124.827 101.611 57.8924 111.541 103.584 57.2005 
[...]
POINT_DATA 998
SCALARS Scalars float
LOOKUP_TABLE default
40 40 40 40 40 40 40 40 40 
40 40 40 40 40 40 40 40 40 
40 40 40 40 40 40 40 40 40 
40 40 40 40 40 40 40 40 40 
40 40 40 40 40 40 40 40 40 
40 40 40 40 40 40 40 40 40 
40 40 40 40 40 40 40 40 40 
40 40 40 40 40 40 40 40 40 
40 40 40 40 40 40 40 40 40 
40 40 40 40 40 40 40 40 40 
40 40 40 40 40 40 40 40 40 
40 40 40 40 40 40 40 40 40 
40 40 40 40 40 40 40 40 40 
40 40 40 40 40 40 40 40 40 
40 40 40 40 40 40 40 40 40 
40 40 40 40 40 40 40 40 40 
40 40 40 40 40 40 40 40 40 
40 40 40 40 40 40 40 40 40 
40 40 40 40 40 40 40 40 40 
40 40 40 40 40 40 40 40 40 
40 40 40 40 40 40 40 40 40 
40 40 40 40 40 40 40 40 40 
40 40 40 40 40 40 40 40 40 
40 40 40 40 40 40 40 40 40 
40 40 40 40 40 40 40 40 40 
40 40 40 40 40 40 40 40 40 
40 40 40 40 40 40 40 40 40 
40 40 40 40 40 40 40 40 40 
40 40 40 40 40 40 40 40 40 
40 40 40 40 40 40 40 40 40 
40 40 40 40 40 40 40 40 40 
40 40 40 40 40 40 40 40 40 
40 40 40 40 40 40 40 40 40 
40 40 40 40 40 40 40 40 40 
40 40 40 40 40 40 40 40 40 
40 40 40 40 40 40 40 40 40 
40 40 40 40 40 40 40 40 40 
40 40 40 40 40 40 40 40 40 
40 40 40 40 40 40 40 40 40 
40 40 40 40 40 40 40 40 40 
40 40 40 40 40 40 40 40 40 
40 40 40 40 40 40 40 40 40 
40 40 40 40 40 40 40 40 40 
40 40 40 40 40 40 40 40 40 
40 40 40 40 40 40 40 40 40 
40 40 40 40 40 40 40 40 40 
40 40 40 40 40 40 40 40 40 
40 40 40 40 40 40 40 40 40 
40 40 40 40 40 40 40 40 40 
40 40 40 40 40 40 40 40 40 
40 40 40 40 40 40 40 40 40 
40 40 40 40 40 40 40 40 40 
40 40 40 40 40 40 40 40 40 
40 40 40 40 40 40 40 40 40 
40 40 40 40 40 40 40 40 40 
40 40 40 40 40 40 40 40 40 
40 40 40 40 40 40 40 40 40 
40 40 40 40 40 40 40 40 40 
40 40 40 40 40 40 40 40 40 
40 40 40 40 40 40 40 40 40 
40 40 40 40 40 40 40 40 40 
40 40 40 40 40 40 40 40 40 
40 40 40 40 40 40 40 40 40 
40 40 40 40 40 40 40 40 40 
40 40 40 40 40 40 40 40 40 
40 40 40 40 40 40 40 40 40 
40 40 40 40 40 40 40 40 40 
40 40 40 40 40 40 40 40 40 
40 40 40 40 40 40 40 40 40 
40 40 40 40 40 40 40 40 40 
40 40 40 40 40 40 40 40 40 
40 40 40 40 40 40 40 40 40 
40 40 40 40 40 40 40 40 40 
40 40 40 40 40 40 40 40 40 
40 40 40 40 40 40 40 40 40 
40 40 40 40 40 40 40 40 40 
40 40 40 40 40 40 40 40 40 
40 40 40 40 40 40 40 40 40 
40 40 40 40 40 40 40 40 40 
40 40 40 40 40 40 40 40 40 
40 40 40 40 40 40 40 40 40 
40 40 40 40 40 40 40 40 40 
40 40 40 40 40 40 40 40 40 
40 40 40 40 40 40 40 40 40 
40 40 40 40 40 40 40 40 40 
40 40 40 40 40 40 40 40 40 
40 40 40 40 40 40 40 40 40 
40 40 40 40 40 40 40 40 40 
40 40 40 40 40 40 40 40 40 
40 40 40 40 40 40 40 40 40 
40 40 40 40 40 40 40 40 40 
40 40 40 40 40 40 40 40 40 
40 40 40 40 40 40 40 40 40 
40 40 40 40 40 40 40 40 40 
40 40 40 40 40 40 40 40 40 
40 40 40 40 40 40 40 40 40 
40 40 40 40 40 40 40 40 40 
40 40 40 40 40 40 40 40 40 
40 40 40 40 40 40 40 40 40 
40 40 40 40 40 40 40 40 40 
40 40 40 40 40 40 40 40 40 
40 40 40 40 40 40 40 40 40 
40 40 40 40 40 40 40 40 40 
40 40 40 40 40 40 40 40 40 
40 40 40 40 40 40 40 40 40 
40 40 40 40 40 40 40 40 40 
40 40 40 40 40 40 40 40 40 
40 40 40 40 40 40 40 40 40 
40 40 40 40 40 40 40 40 40 
40 40 40 40 40 40 40 40 40 
40 40 40 40 40 40 40 40 
