# vtk DataFile Version 3.0
this file was written using fslvtkio
ASCII
DATASET POLYDATA
POINTS 810 float
106.977 132.472 60.0433
106.198 131.575 61.1452
105.627 132.947 60.2608
108.352 132.67 59.9163
107.76 131.332 60.8884
109.3 131.667 60.6799
106.793 134.136 59.5952
105.185 134.474 60.2361
108.085 134.298 59.5545
109.836 132.89 60.1032
109.592 134.142 59.7508
110.904 133.78 60.3347
106.335 135.471 59.7576
105.35 135.86 60.3472
107.68 135.804 59.7231
109.111 135.546 59.7122
110.924 135.356 60.2569
106.291 136.925 60.5172
108.467 136.977 60.1299
110.022 136.72 60.2156
120.533 114.884 62.9527
120.037 113.779 62.6724
118.859 114.349 63.0938
120.981 113.696 63.6807
119.619 115.764 62.7121
118.583 116.053 63.3313
120.807 116.297 63.7552
119.904 117.173 63.6309
112.316 131.389 61.3612
112.101 129.871 61.8751
111.055 130.191 61.8869
113.126 129.783 62.1906
104.946 132.307 61.3297
105.129 131.437 63.0686
104.09 132.706 62.3251
106.45 130.881 62.6681
107.768 130.562 62.2716
110.994 131.991 61.0352
109.704 130.633 61.8235
112.563 133.03 61.0912
113.778 131.179 61.8462
113.879 132.77 61.5901
114.786 131.714 62.3083
104.415 133.799 61.1076
103.784 134.233 62.2792
112.08 134.577 60.8526
113.809 134.558 61.5824
115.057 133.769 62.3615
104.622 135.76 61.169
103.999 136.062 62.3988
111.701 136.458 60.8348
113.1 135.892 61.3945
114.948 135.921 62.7147
105.164 137.168 61.4448
106.421 138.142 61.1336
105.382 138.706 62.5653
108.288 138.205 60.648
110.118 138.085 60.781
111.97 138.039 61.3462
113.042 137.992 61.937
114.198 137.106 62.5003
106.449 139.228 61.7206
107.261 140.164 61.8785
107.754 139.336 61.1768
109.253 139.443 61.1539
111.09 139.296 61.4221
112.692 139.826 62.4666
108.222 140.807 62.2009
110.2 140.56 61.8646
111.689 140.796 62.4695
119.881 112.833 63.5964
120.031 111.459 63.9091
118.995 112.021 64.1896
121.412 112.311 64.1639
121.086 111.087 64.3974
122.146 111.659 65.6808
118.323 113.403 63.9454
117.749 112.558 65.2097
117.354 113.756 65.1869
121.75 113.272 65.028
121.35 114.843 64.4653
117.653 115.264 64.1093
117.056 115.394 65.3541
121.211 116.523 64.9351
117.507 116.859 64.4566
116.941 116.887 65.615
118.8 117.911 64.0106
120.793 118.137 64.8683
117.908 118.799 64.7966
119.651 119.031 64.724
117.611 125.593 63.7602
117.05 123.588 64.2844
116.476 125.003 63.8173
118.437 124.139 64.2519
115.959 126.824 63.4519
115.623 125.17 63.873
114.711 126.048 63.896
117.743 126.995 63.8377
119.003 125.868 64.4923
112.568 128.368 62.9732
112.016 127.293 64.7512
111.246 128.262 63.9178
114.043 127.661 63.2652
113.166 126.731 64.3573
115.683 128.425 63.1259
117.179 128.436 63.5584
119.025 127.918 64.8667
109.181 129.695 63.0919
108.666 129.358 64.8431
107.777 130.024 63.6946
110.574 129.245 62.9952
109.933 128.791 64.4433
114.211 129.502 62.7286
115.791 129.925 63.0408
117.21 130.13 63.7815
118.439 129.196 64.5994
105.255 131.439 64.7383
104.043 132.684 63.7361
106.322 130.762 64.3976
115.771 131.935 63.0049
117.047 131.66 63.8289
103.597 134.384 63.5296
116.024 133.968 63.2244
116.924 133.814 64.1744
103.775 136.146 63.8747
116 135.524 63.5042
116.767 135.711 64.6617
104.462 137.299 62.8662
104.839 138.438 64.2016
113.862 138.882 62.9826
115.055 137.978 63.7668
115.853 136.849 64.0759
106.352 140.053 62.7866
105.498 139.727 64.0931
113.768 139.928 63.3397
114.562 139.854 64.3513
106.754 141.063 63.651
108.271 142.051 63.18
107.253 142.153 64.8075
109.646 141.84 62.6433
111.056 142.082 63.136
112.825 141.745 64.0195
113.766 140.743 64.1023
108.341 143.04 64.3807
109.156 143.918 65.486
109.83 143.138 63.6961
111.018 143.321 63.9862
112.194 142.767 64.2626
110.504 144.241 65.192
119.719 110.644 64.883
120.045 109.393 65.8444
119.017 109.915 66.1091
121.371 110.304 65.4673
121.173 109.39 66.1241
122.278 110.386 66.9308
118.315 111.286 65.548
117.715 111.008 66.9165
117.197 112.413 66.7107
122.429 112.147 67.0606
116.907 113.869 66.7316
121.698 114.931 65.7017
122.152 113.59 66.5684
116.654 115.687 66.9264
121.625 116.542 66.1247
116.711 117.829 66.237
121.501 118.107 66.0962
116.903 120.007 65.1865
116.011 119.077 66.8597
115.801 120.57 66.1319
118.226 120.65 64.7983
119.797 120.49 65.1331
121.089 119.966 65.9235
116.432 121.714 65.1037
115.3 121.989 66.218
117.794 122.166 64.7765
119.608 122.151 65.077
121.028 121.748 66.1088
115.708 123.444 64.736
114.691 123.236 66.0769
119.465 124.054 64.9131
120.705 123.579 65.9846
114.114 125.059 64.9885
113.699 124.494 66.3068
112.976 125.749 65.956
119.946 125.93 65.3696
120.73 125.288 66.308
111.855 126.723 66.5187
110.927 127.67 65.7597
119.997 127.45 65.6881
120.7 127.251 66.9012
108.606 129.269 66.572
107.234 130.131 65.5094
109.822 128.503 66.5725
118.179 130.895 64.7665
119.34 129.942 65.9131
119.942 128.635 66.2721
104.24 132.689 65.0907
105.11 132.217 66.2792
106.177 131.122 66.3963
117.949 132.67 64.9952
118.942 131.833 66.0786
104.311 133.57 66.256
103.67 134.152 64.7567
117.878 134.106 65.4156
118.786 133.201 66.5307
103.823 135.714 65.3771
117.374 135.869 65.8394
118.333 134.827 66.7565
104.256 137.187 64.8264
104.886 138.044 65.9544
115.857 138.238 65.0095
116.828 137.39 66.0327
105.431 139.551 65.8131
115.347 139.824 65.7429
116.443 138.767 66.6268
106.182 140.927 65.1541
106.929 141.652 66.7692
113.815 141.741 65.0754
114.604 141.142 65.7473
107.924 143.104 65.9809
108.968 143.981 67.0745
111.789 143.841 65.1146
113.026 142.966 65.5455
113.893 142.529 66.4003
110.377 144.632 66.746
111.857 144.309 66.317
120.016 108.702 67.0539
120.122 107.636 68.1481
119.142 108.318 68.0008
121.621 108.82 67.5602
121.205 107.783 68.7425
122.244 109.501 68.589
118.504 109.661 67.1986
117.875 109.222 68.6978
117.258 110.79 68.4303
122.5 110.814 68.2297
116.911 112.163 68.4567
122.559 111.898 68.6319
116.64 113.992 68.4423
122.238 114.851 67.2812
122.54 113.372 68.3223
116.511 115.504 68.1932
122.259 116.778 67.5325
122.574 115.334 68.7102
116.235 117.388 67.9213
122.125 118.658 67.4217
122.586 117.537 68.7888
115.611 118.849 68.5144
115.213 120.507 67.6792
121.971 120.439 67.3341
122.554 119.207 68.7435
114.724 121.704 68.0061
121.749 122.304 67.3199
122.471 121.248 68.926
114.059 123.221 67.4073
113.772 122.987 68.932
113.157 124.349 67.9937
121.427 124.119 67.5392
122.171 122.896 68.664
112.429 125.591 68.1089
121.152 125.872 67.5716
111.579 126.571 68.7359
110.607 127.727 67.6906
121.148 127.275 68.4428
107.433 130.193 66.8802
108.436 129.71 68.167
109.645 128.703 68.4437
120.055 130.016 67.2177
120.783 128.768 68.3876
106.524 131.504 68.6711
105.613 132.293 67.642
107.392 130.62 68.5126
119.597 131.831 67.6916
120.386 130.612 68.6929
104.239 134.923 66.6503
104.852 133.855 67.3676
119.289 133.281 68.1377
104.434 136.581 66.432
104.993 136.006 67.8971
118.09 136.211 67.6506
118.83 135.007 68.5635
105.196 137.55 67.5902
117.415 137.572 67.7863
118.309 136.522 69.1811
105.724 139.094 67.4827
106.242 140.443 66.9689
106.591 139.824 68.5023
115.921 140.18 67.3279
116.888 138.88 68.1002
107.156 141.256 68.2617
115.208 141.341 67.541
116.154 140.538 68.9831
107.918 142.809 67.6475
109.106 143.506 69.0122
113.261 143.572 67.285
114.365 142.663 68.1378
110.224 144.49 68.3435
111.823 144.569 67.8987
120.328 107.217 69.5776
119.704 105.996 70.8337
118.837 106.98 70.1468
120.841 106.569 71.058
118.58 108.061 69.179
117.737 107.917 70.6069
117.304 109.166 70.1768
121.389 107.782 70.8158
121.893 108.376 69.4137
116.924 110.362 70.2671
122.19 109.269 70.0255
122.49 110.681 70.3804
116.672 112.143 70.105
122.616 112.408 70.0504
116.487 113.783 69.9963
122.676 114.087 70.0707
116.315 115.513 69.6068
122.729 115.933 70.2146
115.985 117.253 69.4492
122.762 117.637 70.3488
115.357 118.466 70.3544
114.977 119.82 69.8033
122.737 119.501 70.28
114.437 121.369 69.9457
122.691 121.137 70.6765
113.73 122.594 70.5887
113.012 124.131 69.6534
121.974 124.348 69.3497
122.493 122.838 70.2969
112.307 125.348 69.9866
121.525 125.939 69.398
122.088 124.769 70.6913
111.351 126.745 70.4421
110.604 127.723 69.6757
121.351 127.399 70.0942
109.683 128.734 70.5532
108.575 129.825 69.7068
121.075 128.885 70.4469
105.901 132.739 68.9686
106.908 132.151 70.4183
107.718 130.845 70.2997
120.086 132.03 69.5004
120.695 130.604 70.4312
106.222 133.382 70.2773
105.344 134.057 68.6481
119.493 133.554 69.7013
120.139 132.429 70.9383
105.602 135.359 69.3393
105.725 136.818 69.1208
106.418 135.859 70.7472
118.992 135.166 70.1825
105.989 138.245 68.7914
106.592 137.721 70.2643
117.544 138.052 69.7268
118.353 136.715 70.8553
107.076 139.444 70.0281
116.95 139.393 70.2372
107.702 141.069 69.6649
108.316 142.438 69.2041
108.856 141.903 70.8054
115.343 141.725 69.6368
116.117 140.787 70.8513
109.545 142.826 70.926
113.297 143.838 69.0224
114.437 142.852 70.0639
110.068 143.966 69.8197
111.868 144.515 69.4166
119.93 105.683 72.3632
118.639 106.343 71.517
121.228 107.033 72.5112
117.603 107.077 72.2801
117.051 108.392 72.0836
121.659 108.428 72.825
116.699 110.108 71.9753
122.107 109.389 71.4481
122.519 111.277 71.7523
116.428 111.925 71.9293
122.667 113.06 71.5187
116.173 114.071 71.5075
122.72 114.519 71.7625
116.031 115.572 71.1075
122.781 116.184 71.7295
115.658 117.122 71.0165
115.434 116.245 72.4223
115.002 117.959 72.0792
122.804 118.004 71.8918
114.689 119.553 71.6483
122.779 119.81 72.023
114.252 121.015 71.6097
122.662 121.706 72.0809
113.369 122.43 72.2902
112.757 123.841 71.7569
122.441 123.516 71.7432
112.162 125.126 71.7916
121.589 126.484 71.4311
122.006 125.115 72.4928
111.251 126.44 72.1495
110.457 127.735 71.6117
121.365 127.736 72.0017
109.546 128.883 72.5512
108.845 129.748 71.7629
121.084 129.091 72.1618
108.038 131.03 72.4599
107.331 132.116 71.6711
120.665 130.885 71.9173
106.097 134.493 70.4154
106.923 133.876 71.8617
119.427 134.031 71.847
120.075 132.508 72.2767
106.986 135.801 72.111
118.958 135.353 72.0825
107.161 137.707 71.6046
117.568 138.14 71.399
118.277 136.752 72.6604
107.68 139.244 71.3455
108.101 140.575 70.8813
108.825 140.083 72.5616
117.004 139.241 72.2327
109.626 141.343 72.768
115.225 141.872 71.4865
[...]
POINT_DATA 810
SCALARS Scalars float
LOOKUP_TABLE default
50
50
50
50
50
50
50
50
50
50
50
50
50
50
50
50
50
50
50
50
50
50
50
50
50
50
50
50
50
50
50
50
50
50
50
50
50
50
50
50
50
50
50
50
50
50
50
50
50
50
50
50
50
50
50
50
50
50
50
50
50
50
50
50
50
50
50
50
50
50
50
50
50
50
50
50
50
50
50
50
50
50
50
50
50
50
50
50
50
50
50
50
50
50
50
50
50
50
50
50
50
50
50
50
50
50
50
50
50
50
50
50
50
50
50
50
50
50
50
50
50
50
50
50
50
50
50
50
50
50
50
50
50
50
50
50
50
50
50
50
50
50
50
50
50
50
50
50
50
50
50
50
50
50
50
50
50
50
50
50
50
50
50
50
50
50
50
50
50
50
50
50
50
50
50
50
50
50
50
50
50
50
50
50
50
50
50
50
50
50
50
50
50
50
50
50
50
50
50
50
50
50
50
50
50
50
50
50
50
50
50
50
50
50
50
50
50
50
50
50
50
50
50
50
50
50
50
50
50
50
50
50
50
50
50
50
50
50
50
50
50
50
50
50
50
50
50
50
50
50
50
50
50
50
50
50
50
50
50
50
50
50
50
50
50
50
50
50
50
50
50
50
50
50
50
50
50
50
50
50
50
50
50
50
50
50
50
50
50
50
50
50
50
50
50
50
50
50
50
50
50
50
50
50
50
50
50
50
50
50
50
50
50
50
50
50
50
50
50
50
50
50
50
50
50
50
50
50
50
50
50
50
50
50
50
50
50
50
50
50
50
50
50
50
50
50
50
50
50
50
50
50
50
50
50
50
50
50
50
50
50
50
50
50
50
50
50
50
50
50
50
50
50
50
50
50
50
50
50
50
50
50
50
50
50
50
50
50
50
50
50
50
50
50
50
50
50
50
50
50
50
50
50
50
50
50
50
50
50
50
50
50
50
50
50
50
50
50
50
50
50
50
50
50
50
50
50
50
50
50
50
50
50
50
50
50
50
50
50
50
50
50
50
50
50
50
50
50
50
50
50
50
50
50
50
50
50
50
50
50
50
50
50
50
50
50
50
50
50
50
50
50
50
50
50
50
50
50
50
50
50
50
50
50
50
50
50
50
50
50
50
50
50
50
50
50
50
50
50
50
50
50
50
50
50
50
50
50
50
50
50
50
50
50
50
50
50
50
50
50
50
50
50
50
50
50
50
50
50
50
50
50
50
50
50
50
50
50
50
50
50
50
50
50
50
50
50
50
50
50
50
50
50
50
50
50
50
50
50
50
50
50
50
50
50
50
50
50
50
50
50
50
50
50
50
50
50
50
50
50
50
50
50
50
50
50
50
50
50
50
50
50
50
50
50
50
50
50
50
50
50
50
50
50
50
50
50
50
50
50
50
50
50
50
50
50
50
50
50
50
50
50
50
50
50
50
50
50
50
50
50
50
50
50
50
50
50
50
50
50
50
50
50
50
50
50
50
50
50
50
50
50
50
50
50
50
50
50
50
50
50
50
50
50
50
50
50
50
50
50
50
50
50
50
50
50
50
50
50
50
50
50
50
50
50
50
50
50
50
50
50
50
50
50
50
50
50
50
50
50
50
50
50
50
50
50
50
50
50
50
50
50
50
50
50
50
50
50
50
50
50
50
50
50
50
50
50
50
50
50
50
50
50
50
50
50
50
50
50
50
50
50
50
50
50
50
50
50
50
50
50
50
50
50
50
50
50
50
50
50
50
50
50
50
50
50
50
50
50
50
50
50
50
50
50
50
50
50
50
50
50
50
50
50
50
50
50
50
50
50
50
50
50
50
50
50
50
50
50
50
50
50
50
50
50
50
50
50
50
50
