# vtk DataFile Version 3.0
this file was written using fslvtkio
ASCII
DATASET POLYDATA
POINTS 582 float
96.5492 114.224 62.0994
96.3574 113.951 62.2822
96.2665 114.35 62.2022
96.9965 114.165 62.0399
96.6906 113.878 62.1267
97.095 113.839 62.18
96.5486 114.652 62.0495
96.2534 114.867 62.1735
96.9156 114.58 62.0227
97.2883 114.132 62.0854
97.2468 114.639 62.0383
97.5966 114.353 62.1446
96.4798 115.108 62.094
96.1112 115.117 62.3659
97.0349 114.965 62.0404
97.3603 114.954 62.1152
97.651 114.697 62.1376
96.4452 115.576 62.1112
96.0624 115.54 62.4831
96.9264 115.574 62.0837
97.2636 115.464 62.1378
96.2614 115.822 62.1928
96.0496 115.887 62.5796
96.6044 115.968 62.1128
97.1813 115.978 62.2061
96.1871 116.16 62.2565
96.0938 116.27 62.5402
96.4577 116.512 62.1837
96.6529 116.582 62.5523
96.1348 116.474 62.3204
97.9172 111.926 62.7117
97.7458 111.769 63.0877
97.4435 112.135 63.074
98.2474 111.823 62.727
98.1153 111.63 63.025
98.6156 111.673 62.8466
97.4207 112.535 62.6186
97.1698 112.431 62.9323
97.1479 112.78 62.8111
97.9879 112.473 62.5373
98.3715 112.359 62.5535
98.7964 112.103 62.7024
97.3119 113.212 62.5223
96.9325 113.213 62.7873
97.8496 112.913 62.5167
98.2129 112.896 62.5154
98.6965 112.599 62.6119
96.9514 113.538 62.4769
96.6495 113.387 62.9061
96.5515 113.637 62.8718
97.4173 113.553 62.4847
97.9809 113.314 62.5016
98.3899 113.234 62.5374
98.7139 112.973 62.591
96.127 114.197 62.4992
96.3193 114.012 62.8534
97.4015 113.93 62.336
97.8581 114.029 62.4241
98.4798 113.583 62.5714
98.3437 114.009 62.5339
98.7262 113.819 62.6179
96.1585 114.335 62.9316
96.0648 114.748 62.6294
97.8585 114.458 62.3163
98.3478 114.414 62.5354
98.6327 114.261 62.6121
96.0486 115.102 62.7814
97.8083 115.167 62.3911
98.1759 115.156 62.5755
98.4939 115.025 62.7383
98.6843 114.648 62.6663
96.0371 115.647 62.8441
97.5214 115.654 62.3493
98.0758 115.581 62.6025
98.3774 115.503 62.8187
96.0588 116.018 62.8592
97.587 115.965 62.4849
97.8396 116.24 62.8359
98.2291 115.942 62.9304
96.3724 116.498 62.8308
96.3086 116.683 62.5206
96.7579 116.734 62.8173
96.5589 116.586 63.0958
97.1024 116.639 62.6986
97.537 116.389 62.7168
97.0349 116.855 63.0674
99.6873 110.895 63.1721
99.6588 110.637 63.5546
99.2396 110.867 63.3582
100.166 110.916 63.2038
99.9185 110.652 63.4332
100.325 110.781 63.4467
98.71 111.326 63.1819
98.563 111.23 63.8812
98.1409 111.522 63.7262
99.1111 111.318 63.104
98.975 111.106 63.547
99.6918 111.439 63.0389
100.038 111.398 63.0566
100.374 111.152 63.2651
97.8694 111.685 63.6414
97.5098 112.07 63.4166
98.9932 111.717 63.0229
99.4298 111.803 63.0166
99.9415 111.799 63.04
100.278 111.676 63.1388
97.0562 112.704 63.1924
97.3026 112.46 63.4958
99.1507 112.386 62.8996
99.4678 112.265 63.0018
100.02 112.379 63.1355
100.255 112.069 63.1451
97.0685 112.78 63.4977
96.9823 113.006 63.2749
99.1931 113.032 62.8669
99.4971 112.918 62.9874
100.013 112.758 63.2124
96.5717 113.581 63.2039
96.7626 113.465 63.4051
98.853 113.49 62.7116
99.2056 113.497 62.8978
99.4969 113.323 62.9907
99.9616 113.212 63.1864
96.6621 113.74 63.5536
96.4736 113.998 63.1978
98.9802 113.921 62.8141
99.4223 113.975 63.019
99.8627 113.877 63.1719
96.0871 114.83 63.0197
96.3044 114.365 63.2518
99.1001 114.678 63.0478
99.4362 114.588 63.2117
99.7973 114.198 63.2119
96.1793 115.294 63.2737
96.35 115.052 63.4485
98.8319 115.027 62.9655
99.1757 115.127 63.1864
99.4181 115.029 63.4053
96.175 115.83 63.2842
96.3932 115.499 63.5124
98.795 115.45 63.0681
98.977 115.701 63.4467
99.3079 115.408 63.4931
96.2425 116.304 63.1523
96.4098 116.074 63.4461
98.1674 116.202 63.0656
98.3939 116.194 63.3322
98.7375 115.865 63.3216
96.6244 116.401 63.7618
97.304 116.733 62.9526
97.6874 116.538 63.0363
98.0056 116.417 63.1929
96.9874 116.832 63.6064
97.361 116.88 63.5069
100.685 110.5 63.7023
100.676 110.121 64.3996
100.355 110.212 64.2146
100.984 110.251 64.077
99.3172 110.759 63.7228
99.5416 110.749 64.0894
100.01 110.57 64.132
100.729 110.988 63.537
101.072 110.567 63.8422
101.016 110.869 63.6214
101.365 110.748 63.8388
98.3857 111.434 63.9489
98.5949 111.422 64.2209
98.8283 111.193 64.1897
99.3411 110.94 64.1575
100.767 111.604 63.4201
101.13 111.502 63.5708
101.502 111.212 63.8328
97.7107 111.969 63.8432
98.0124 111.888 64.0336
98.2562 111.657 64.1258
100.611 112.042 63.3949
101.076 111.943 63.5671
101.354 111.745 63.7332
97.7482 112.202 64.2057
97.4605 112.436 63.8441
100.305 112.647 63.3455
100.79 112.596 63.5527
101.075 112.445 63.6791
101.344 112.164 63.7469
97.0395 113.056 63.693
97.2777 112.772 63.8777
100.274 113.075 63.3739
100.721 112.98 63.5513
100.964 112.864 63.6972
97.1129 113.251 64.0304
97.0026 113.413 63.7897
100.212 113.642 63.4007
100.682 113.709 63.6186
100.963 113.462 63.7758
96.5567 114.163 63.6305
96.8967 113.764 63.8903
100.051 114.181 63.397
100.644 114.109 63.6758
100.939 113.975 63.9078
96.644 114.664 63.8093
96.851 114.454 63.9905
99.7619 114.651 63.4437
100.229 114.745 63.7246
100.614 114.568 64.0116
100.816 114.386 63.9804
96.5493 115.204 63.7663
96.8534 114.869 64.0804
99.9708 114.984 63.7278
100.124 115.113 64.0049
100.369 114.91 64.0225
96.5683 115.554 63.8749
96.8234 115.467 64.1816
99.2917 115.693 63.6539
99.4461 115.67 63.975
99.8141 115.363 63.9456
96.6902 115.733 64.1736
96.5752 116.049 63.8879
98.6331 116.131 63.5075
98.8364 116.033 63.5862
99.2009 115.908 63.8429
96.7339 116.273 64.104
96.8644 116.578 63.9395
97.0499 116.572 64.1624
97.884 116.76 63.5232
98.1519 116.68 63.7871
98.5534 116.442 63.9835
97.2379 116.857 63.89
97.8729 116.85 63.945
100.725 110.115 64.7744
100.36 110.258 64.6867
101.569 110.371 64.1538
101.256 110.07 64.5818
101.919 110.503 64.3099
101.763 110.229 64.4385
102.058 110.355 64.5416
99.9347 110.628 64.593
99.6976 110.782 64.5392
101.783 110.974 64.0517
102.402 110.634 64.6789
102.14 111.075 64.1897
102.622 110.94 64.7191
98.7755 111.371 64.4296
99.0286 111.364 64.6359
99.1923 111.142 64.5694
101.817 111.421 64.0594
102.097 111.469 64.2872
102.429 111.397 64.542
98.2288 111.847 64.3883
98.4612 111.931 64.6271
98.7013 111.607 64.6375
101.666 112.242 64.0377
102.048 112.032 64.3559
97.6535 112.456 64.3202
97.9336 112.4 64.5135
98.2377 112.123 64.6332
101.446 112.614 63.9624
101.734 112.633 64.0914
102.049 112.448 64.4371
97.6454 112.773 64.591
97.4693 112.874 64.2747
101.235 113.176 63.919
101.592 113.171 64.07
101.941 113.032 64.3647
97.0745 113.597 64.1495
97.3662 113.252 64.3627
101.273 113.612 64.0232
101.599 113.491 64.2635
101.858 113.314 64.3596
97.1802 114.09 64.3651
97.3909 113.936 64.532
101.375 113.977 64.2086
101.547 113.892 64.4223
97.0902 114.606 64.3323
97.4176 114.298 64.6095
100.849 114.617 64.191
101.044 114.489 64.3928
101.452 114.303 64.5783
97.1781 115.012 64.5247
97.4866 114.871 64.7505
100.379 115.164 64.2741
100.501 115.037 64.4068
100.824 114.855 64.6029
97.345 115.196 64.8018
97.075 115.45 64.5315
99.7411 115.661 64.1654
99.9288 115.501 64.2851
100.315 115.327 64.5423
96.6446 116.005 64.2147
97.0074 115.802 64.4872
98.9231 116.264 63.9931
99.3467 116.03 64.2006
99.589 115.873 64.3904
97.0892 116.293 64.4722
97.2467 116.646 64.3506
97.4367 116.535 64.503
98.1123 116.784 64.3171
98.4858 116.509 64.4193
98.8866 116.42 64.3169
97.6273 116.809 64.3745
100.541 110.275 65.0129
100.851 110.31 65.3341
101.205 110.071 64.9808
101.53 110.065 64.886
102.251 110.277 64.7499
101.997 110.121 64.8651
102.347 110.375 65.0057
99.8248 110.783 64.8799
100.085 110.806 65.1537
100.522 110.491 65.2146
102.852 110.895 64.959
102.612 110.672 65.0161
102.946 111.008 65.304
99.1975 111.281 64.8441
99.5013 111.313 65.0671
99.8596 111.021 65.1114
102.394 111.781 64.641
102.589 111.582 64.8276
102.915 111.241 65.1329
98.6654 111.78 64.8301
98.9419 111.816 65.0622
99.2368 111.517 65.0462
102.265 112.263 64.5848
102.572 112.002 64.9314
98.1703 112.35 64.8262
98.4247 112.316 64.9624
98.6253 112.055 64.9711
102.31 112.626 64.6839
102.505 112.592 65.0584
97.6676 113.151 64.7849
97.8677 112.985 64.9204
98.1551 112.708 65.0856
102.176 113.006 64.7391
102.424 112.879 65.0373
97.6594 113.717 64.8661
97.9102 113.376 65.0188
101.85 113.67 64.6013
102.063 113.45 64.766
97.7569 114.174 64.9828
97.9648 114.002 65.156
101.743 114.11 64.6711
102.024 113.838 64.8964
97.7649 114.752 65.0029
97.9969 114.392 65.2241
101.087 114.674 64.8399
101.515 114.509 65.2043
101.868 114.356 65.1626
97.7383 115.166 65.0067
97.9795 114.963 65.2157
100.607 115.075 64.8587
100.852 114.942 65.1158
97.3273 115.695 64.8206
97.8693 115.806 65.0086
98.1744 115.526 65.3043
99.8807 115.698 64.9333
100.155 115.473 65.127
97.4092 116.181 64.7973
97.7678 116.22 64.8903
98.1768 116.012 65.2354
99.2363 116.258 64.7744
99.6052 115.89 65.1327
97.6973 116.631 64.6356
98.3162 116.436 64.938
98.8906 116.396 64.8682
101.135 110.218 65.3787
101.521 110.208 65.3088
101.95 110.257 65.3412
100.354 110.709 65.38
100.735 110.61 65.592
101.113 110.492 65.5658
101.81 110.513 65.6744
102.192 110.54 65.5939
102.804 110.634 65.6242
103.071 110.829 65.6759
99.7501 111.214 65.3106
100.008 111.196 65.4703
100.397 110.956 65.6292
102.843 111.733 65.1425
103.126 111.373 65.5209
99.1215 111.745 65.25
99.3971 111.613 65.3422
99.6428 111.51 65.4394
102.894 112.096 65.2903
103.04 111.9 65.5705
98.6107 112.257 65.2139
98.8405 112.189 65.3691
99.1145 111.968 65.3979
102.668 112.558 65.2923
102.947 112.317 65.5745
98.2105 113.129 65.3523
98.4218 112.902 65.4327
98.7511 112.551 65.5147
102.319 113.317 65.0492
102.562 112.975 65.3972
98.2738 113.675 65.474
98.4781 113.446 65.6294
102.251 113.7 65.0583
102.467 113.549 65.4396
98.2431 114.187 65.4496
98.5231 113.849 65.6981
102.18 114.157 65.2067
102.442 113.927 65.5468
98.4163 114.706 65.5941
98.6726 114.49 65.8601
101.267 114.8 65.3096
101.409 114.724 65.6264
101.766 114.467 65.652
102.088 114.378 65.5379
98.4804 115.307 65.524
98.722 114.877 65.8745
100.46 115.231 65.3845
100.69 115.027 65.8186
101.16 114.902 65.7354
98.5867 115.772 65.4862
98.721 115.526 65.7295
99.8299 115.682 65.4278
100.223 115.419 65.5272
98.5236 116.305 65.198
99.0335 115.878 65.5467
[...]
POINT_DATA 582
SCALARS Scalars float
LOOKUP_TABLE default
0.5
0.5
0.5
0.5
0.5
0.5
0.5
0.5
0.5
0.5
0.5
0.5
0.5
0.5
0.5
0.5
0.5
0.5
0.5
0.5
0.5
0.5
0.5
0.5
0.5
0.5
0.5
0.5
0.5
0.5
0.5
0.5
0.5
0.5
0.5
0.5
0.5
0.5
0.5
0.5
0.5
0.5
0.5
0.5
0.5
0.5
0.5
0.5
0.5
0.5
0.5
0.5
0.5
0.5
0.5
0.5
0.5
0.5
0.5
0.5
0.5
0.5
0.5
0.5
0.5
0.5
0.5
0.5
0.5
0.5
0.5
0.5
0.5
0.5
0.5
0.5
0.5
0.5
0.5
0.5
0.5
0.5
0.5
0.5
0.5
0.5
0.5
0.5
0.5
0.5
0.5
0.5
0.5
0.5
0.5
0.5
0.5
0.5
0.5
0.5
0.5
0.5
0.5
0.5
0.5
0.5
0.5
0.5
0.5
0.5
0.5
0.5
0.5
0.5
0.5
0.5
0.5
0.5
0.5
0.5
0.5
0.5
0.5
0.5
0.5
0.5
0.5
0.5
0.5
0.5
0.5
0.5
0.5
0.5
0.5
0.5
0.5
0.5
0.5
0.5
0.5
0.5
0.5
0.5
0.5
0.5
0.5
0.5
0.5
0.5
0.5
0.5
0.5
0.5
0.5
0.5
0.5
0.5
0.5
0.5
0.5
0.5
0.5
0.5
0.5
0.5
0.5
0.5
0.5
0.5
0.5
0.5
0.5
0.5
0.5
0.5
0.5
0.5
0.5
0.5
0.5
0.5
0.5
0.5
0.5
0.5
0.5
0.5
0.5
0.5
0.5
0.5
0.5
0.5
0.5
0.5
0.5
0.5
0.5
0.5
0.5
0.5
0.5
0.5
0.5
0.5
0.5
0.5
0.5
0.5
0.5
0.5
0.5
0.5
0.5
0.5
0.5
0.5
0.5
0.5
0.5
0.5
0.5
0.5
0.5
0.5
0.5
0.5
0.5
0.5
0.5
0.5
0.5
0.5
0.5
0.5
0.5
0.5
0.5
0.5
0.5
0.5
0.5
0.5
0.5
0.5
0.5
0.5
0.5
0.5
0.5
0.5
0.5
0.5
0.5
0.5
0.5
0.5
0.5
0.5
0.5
0.5
0.5
0.5
0.5
0.5
0.5
0.5
0.5
0.5
0.5
0.5
0.5
0.5
0.5
0.5
0.5
0.5
0.5
0.5
0.5
0.5
0.5
0.5
0.5
0.5
0.5
0.5
0.5
0.5
0.5
0.5
0.5
0.5
0.5
0.5
0.5
0.5
0.5
0.5
0.5
0.5
0.5
0.5
0.5
0.5
0.5
0.5
0.5
0.5
0.5
0.5
0.5
0.5
0.5
0.5
0.5
0.5
0.5
0.5
0.5
0.5
0.5
0.5
0.5
0.5
0.5
0.5
0.5
0.5
0.5
0.5
0.5
0.5
0.5
0.5
0.5
0.5
0.5
0.5
0.5
0.5
0.5
0.5
0.5
0.5
0.5
0.5
0.5
0.5
0.5
0.5
0.5
0.5
0.5
0.5
0.5
0.5
0.5
0.5
0.5
0.5
0.5
0.5
0.5
0.5
0.5
0.5
0.5
0.5
0.5
0.5
0.5
0.5
0.5
0.5
0.5
0.5
0.5
0.5
0.5
0.5
0.5
0.5
0.5
0.5
0.5
0.5
0.5
0.5
0.5
0.5
0.5
0.5
0.5
0.5
0.5
0.5
0.5
0.5
0.5
0.5
0.5
0.5
0.5
0.5
0.5
0.5
0.5
0.5
0.5
0.5
0.5
0.5
0.5
0.5
0.5
0.5
0.5
0.5
0.5
0.5
0.5
0.5
0.5
0.5
0.5
0.5
0.5
0.5
0.5
0.5
0.5
0.5
0.5
0.5
0.5
0.5
0.5
0.5
0.5
0.5
0.5
0.5
0.5
0.5
0.5
0.5
0.5
0.5
0.5
0.5
0.5
0.5
0.5
0.5
0.5
0.5
0.5
0.5
0.5
0.5
0.5
0.5
0.5
0.5
0.5
0.5
0.5
0.5
0.5
0.5
0.5
0.5
0.5
0.5
0.5
0.5
0.5
0.5
0.5
0.5
0.5
0.5
0.5
0.5
0.5
0.5
0.5
0.5
0.5
0.5
0.5
0.5
0.5
0.5
0.5
0.5
0.5
0.5
0.5
0.5
0.5
0.5
0.5
0.5
0.5
0.5
0.5
0.5
0.5
0.5
0.5
0.5
0.5
0.5
0.5
0.5
0.5
0.5
0.5
0.5
0.5
0.5
0.5
0.5
0.5
0.5
0.5
0.5
0.5
0.5
0.5
0.5
0.5
0.5
0.5
0.5
0.5
0.5
0.5
0.5
0.5
0.5
0.5
0.5
0.5
0.5
0.5
0.5
0.5
0.5
0.5
0.5
0.5
0.5
0.5
0.5
0.5
0.5
0.5
0.5
0.5
0.5
0.5
0.5
0.5
0.5
0.5
0.5
0.5
0.5
0.5
0.5
0.5
0.5
0.5
0.5
0.5
0.5
0.5
0.5
