# vtk DataFile Version 3.0
this file was written using fslvtkio
ASCII
DATASET POLYDATA
POINTS 826 float
99.9106 133.914 60.9885
98.6904 132.942 61.9796
98.6479 134.549 61.1952
100.019 132.787 61.8815
99.7345 135.145 60.7568
98.6752 136 61.1756
101.038 133.515 61.5585
101.317 134.72 61.2111
101.983 134.066 62.5094
100.067 136.401 60.8328
99.2385 137.295 61.4055
101.346 135.87 61.0632
102.441 135.648 62.3048
100.923 137.652 61.553
102.21 136.883 62.0525
97.7181 133.8 62.1108
97.5622 132.757 63.2326
96.8622 134.785 62.7493
98.7687 132.25 63.2683
101.344 133.112 62.8572
100.275 132.379 63.2443
101.678 133.496 64.2925
97.5367 135.708 61.9507
96.8204 136.627 62.9376
102.401 134.531 63.5752
97.9523 137.397 62.1068
96.9441 137.994 63.4437
102.731 135.748 63.5608
98.2107 138.522 62.5117
97.4881 139.708 63.8354
99.9042 138.463 61.9305
101.669 138.391 62.2902
102.911 137.298 63.3768
98.4257 139.634 62.8447
99.2797 140.468 62.8865
99.637 139.611 62.2986
101.083 139.457 62.2991
102.763 138.992 63.2645
100.363 141.105 63.0325
102.087 140.338 62.939
96.598 133.56 63.6691
96.8105 132.638 64.8781
95.8789 134.119 64.5941
97.8936 132.14 64.5603
99.1155 132.045 64.7729
100.505 132.486 64.4497
100.186 132.451 65.2975
96.051 135.352 63.7767
95.4968 135.433 65.1791
100.972 133.19 65.6418
102.308 134.688 65.2066
95.9319 136.646 64.2888
95.3876 136.748 65.657
102.858 135.962 64.8974
96.1521 137.946 64.6868
96.6019 139.622 65.1917
103.182 137.405 64.8633
98.2468 140.647 63.8618
97.3671 141.022 65.2498
103.529 139.036 64.2743
103.224 140.553 63.5949
104.154 139.93 64.9216
98.9453 141.621 64.1145
100.473 142.287 63.6874
99.1731 142.454 64.4625
101.881 141.886 63.3725
103.443 142.123 64.0292
104.409 141.117 64.9535
99.5723 143.145 64.8864
100.619 143.944 64.8169
101.3 143.21 64.0814
102.752 143.167 64.0988
104.451 142.948 65.0926
101.548 144.538 65.1701
103.516 144.057 64.8372
96.552 132.678 66.4689
95.8002 133.619 65.9528
98.2208 132.168 66.0494
99.5769 132.472 66.0453
99.2009 132.552 67.6574
95.2148 135.116 66.5663
100.404 133.044 67.1537
101.396 133.772 66.4653
101.131 133.965 68.334
95.0772 136.499 67.2112
102.105 134.696 66.7298
102.886 135.898 66.3606
95.7073 138.269 65.8034
95.1728 138.053 67.5317
103.414 137.032 66.7509
96.0489 139.518 66.3332
96.5863 140.939 66.7185
103.829 138.253 65.8784
104.597 139.748 66.3012
97.9948 142.18 65.5293
97.2538 142.449 67.2347
105.07 141.33 66.5196
98.483 143.259 66.1191
100.025 144.29 65.7143
99.0157 144.244 66.5226
105.306 143.041 66.0573
104.763 144.459 65.5463
105.969 143.884 66.9513
99.5739 144.955 66.9704
101.255 145.657 66.2277
100.327 145.905 67.0297
102.996 145.365 65.4824
104.242 145.764 66.0607
105.99 145.367 67.2558
101.056 146.536 67.3399
102.097 147.504 67.7327
102.634 146.395 66.3711
103.82 147.02 66.7163
105.341 146.537 67.0406
103.265 147.785 67.6635
96.3496 132.813 67.7698
95.569 133.704 67.2559
97.8656 132.286 67.6879
98.7901 132.688 69.1815
95.1226 135.048 68.1003
100 133.266 69.3529
101.12 134.252 69.7245
94.9918 136.357 68.6785
102.081 134.976 68.1693
103.035 136.186 68.37
95.0432 137.844 69.007
103.684 137.403 68.2702
95.5868 139.605 67.7143
95.2292 139.214 69.0372
104.159 138.404 67.4112
104.897 139.672 67.9799
95.9486 140.774 68.3803
96.5747 142.028 68.7779
105.45 140.896 68.1601
98.1225 143.865 67.4579
97.3723 143.592 68.972
105.898 142.612 67.4413
106.593 143.746 68.4362
98.374 144.755 68.5959
99.5521 145.882 68.2006
98.9729 145.805 69.6412
106.77 144.97 68.7713
100.184 146.797 69.1022
101.228 147.504 68.6632
101.176 147.788 70.1662
104.797 147.546 67.7809
106.17 146.443 68.2345
102.219 148.227 69.4116
103.612 148.398 69.1816
104.82 148.099 68.9804
96.4035 132.939 69.1547
95.46 134.042 69.1896
97.6931 132.551 69.2851
97.1285 133.013 70.6567
95.1431 135.242 69.5733
98.2105 132.985 70.9353
99.5238 133.365 71.0166
101.005 134.337 71.3065
95.0636 136.451 70.3398
102.137 135.341 69.642
102.025 135.304 70.9972
95.0356 137.881 70.5355
102.925 136.297 70.0486
103.648 137.257 70.0158
95.2084 139.608 70.9073
104.473 138.664 69.0972
105.232 139.767 69.6599
95.862 141.016 69.6811
96.4958 142.44 70.3057
105.972 141.061 69.6052
106.256 142.249 68.7106
106.632 142.13 70.1548
97.1583 143.74 70.7779
107.076 143.282 70.5258
97.8656 144.652 70.2034
98.634 145.725 71.6165
107.482 144.467 70.5818
107.69 145.483 70.3025
108.017 145.189 71.9097
99.7176 146.77 70.9671
100.808 147.67 71.7314
107.109 146.393 69.4568
108.05 146.253 71.4659
102.267 148.457 70.9779
103.62 148.671 70.554
104.971 148.649 69.9315
104.843 149.006 71.3396
106.368 147.576 69.3702
106.19 148.481 70.3522
95.9636 133.665 70.5441
96.8999 133.591 72.0031
95.5389 134.792 71.4367
98.1347 132.943 72.6582
99.6898 133.541 72.0376
99.8182 133.352 73.0802
95.1594 136.319 71.6972
101.052 134.298 72.5447
102.17 135.198 73.1255
95.029 137.859 72.0894
103.014 136.344 71.996
103.835 137.394 71.8783
95.1102 139.155 72.5466
104.5 138.44 70.8973
105.368 139.46 71.8328
95.6393 141.04 71.1259
95.3802 140.425 72.3812
106.09 140.829 70.8801
106.77 141.719 71.6967
96.103 142.154 72.0521
96.9532 143.51 73.0722
107.314 142.726 72.3455
97.7111 144.674 72.3783
98.6269 145.7 73.3291
107.585 143.827 71.8968
108.18 144.888 73.493
99.5165 146.635 72.6393
100.945 147.712 73.2408
107.843 147.136 71.8176
108.186 146.42 73.3061
102.258 148.462 72.6362
103.96 148.796 72.5166
105.361 148.91 72.5751
107.11 147.659 70.7304
107.535 147.601 73.3339
106.24 148.767 71.4759
97.9692 132.382 74.1634
97.9633 131.849 75.4432
97.0434 132.83 74.7984
99.2115 132.05 74.9354
96.6288 133.538 73.7782
95.7508 134.683 73.0645
101.128 133.996 73.7021
99.9086 132.928 74.2002
101.403 133.781 74.8222
95.1631 136.566 73.1939
102.388 134.85 74.7014
95.0894 137.805 73.7808
103.312 136.179 74.0186
104.035 137.225 73.6934
95.2917 139.403 74.4756
104.812 138.529 72.7085
105.598 139.315 73.6361
95.6495 140.753 74.0533
96.1328 142 73.2794
96.5267 142.229 74.9995
106.152 140.392 72.7285
107.053 141.43 73.7612
97.1142 143.389 75.1011
107.518 142.26 74.2994
97.6586 144.421 74.3404
98.8691 145.661 75.2522
107.855 143.75 73.5683
108.456 145.003 74.9584
99.7779 146.691 74.5233
101.028 147.607 74.6062
108.274 146.519 74.8605
102.368 148.434 73.9018
104.048 148.734 73.7602
105.754 148.525 73.7038
106.885 148.27 72.3747
107.429 147.739 74.8818
98.3973 131.249 76.3897
98.2637 130.715 77.7785
97.312 131.644 76.7342
99.2929 130.989 76.919
96.7631 132.535 76.986
100.078 131.535 76.5739
95.8442 134.602 74.955
96.349 133.767 76.6201
100.62 132.732 75.478
101.938 133.631 76.2541
95.7771 135.017 76.4734
95.301 136.096 74.8605
103.059 134.69 76.5344
103.173 135.442 75.3677
103.859 135.878 76.1376
95.213 137.429 75.2891
104.855 138.095 74.2238
104.249 136.727 75.3657
105.262 137.908 75.6819
95.4124 139.092 75.8009
105.884 139.071 75.2986
95.9788 140.88 75.6561
96.5978 141.527 76.8974
106.649 140.504 74.6481
107.48 141.172 76.2085
97.2228 142.735 77.1316
107.902 142.423 75.7175
108.226 143.725 75.0796
108.523 143.537 76.6997
97.8505 144.075 76.4197
99.0872 145.424 76.6786
108.666 144.908 76.966
100.026 146.537 76.0417
101.108 147.293 75.9071
102.197 148.11 75.3148
102.7 147.94 76.5527
108.22 146.452 76.5002
103.691 148.577 75.5082
105.192 148.624 75.1608
106.86 148.013 75.7909
98.8219 130.06 79.1886
97.2193 131.443 78.5942
100.042 130.22 78.6758
96.6236 132.715 78.4574
100.902 131.044 78.1463
101.203 132.393 76.7898
101.896 132.2 78.0173
96.3373 134.295 78.6773
102.539 133.078 77.9962
95.9502 135.507 78.4054
95.4288 136.388 76.6002
103.409 134.041 78.19
104.141 135.188 77.9463
95.4556 137.55 77.074
105.008 136.582 77.3656
105.786 137.81 77.2018
95.7951 138.988 77.5097
95.9823 140.124 76.8654
96.5582 139.769 78.8321
106.423 138.904 76.9665
106.864 140.048 76.2878
107.263 139.424 78.1107
97.1577 141.266 79.1946
107.756 140.686 77.9779
97.7308 142.565 78.9402
97.8285 143.486 77.601
98.5463 143.759 78.8063
108.032 142.012 77.2678
108.682 143.191 78.5017
99.3704 144.906 78.3574
100.249 146.107 77.525
100.495 145.682 78.9425
108.63 144.824 78.3972
101.799 147.085 77.8289
102.963 147.632 78.0484
107.917 146.772 77.4336
106.982 147.715 77.2638
107.913 146.262 78.912
104.19 148.387 76.9625
105.401 148.457 76.534
98.3457 129.419 80.0104
97.9733 129.295 81.0443
97.6253 130.456 79.7962
99.1071 128.728 80.9423
96.8619 131.637 79.9975
100.788 130.05 79.1965
100.515 129.063 80.3583
101.377 129.914 79.9742
96.5728 132.847 80.2985
102.929 132.047 79.5733
102.163 131.019 79.6115
103.252 131.282 80.8626
96.4652 134.284 80.3315
103.251 133.066 79.0665
103.907 133.034 80.0953
95.9185 136.816 78.6704
96.4318 135.567 79.9808
104.746 135.563 78.4773
104.397 134.237 79.5385
105.329 135.768 79.1303
96.0866 138.261 78.7213
96.5527 137.885 80.021
106.698 138.16 78.5866
105.829 136.845 78.6418
107.018 137.38 80.1367
96.8718 139.417 80.2625
107.559 138.805 79.8011
97.5041 140.909 80.6913
108.158 140.584 79.506
108.385 141.795 78.7552
108.811 141.816 80.4208
98.2164 142.2 80.5753
99.15 143.585 80.3855
108.755 143.254 79.9781
100.049 144.718 80.085
101.116 145.457 80.4277
108.385 144.854 80.2476
102.032 146.674 79.2189
103.364 147.127 79.4663
104.302 147.952 78.5693
104.983 147.402 79.7649
106.745 147.434 78.7475
107.353 146.262 80.4518
105.444 148.049 78.3953
99.5043 127.816 82.0781
99.3913 126.858 83.677
98.6705 127.691 83.1561
100.449 126.905 82.9719
98.2885 128.729 82.3572
97.2888 130.259 81.5633
100.348 128.183 81.315
101.367 127.788 82.2488
96.9247 131.517 82.0491
102.493 130.248 80.8354
101.69 128.872 81.4507
103.217 129.778 82.1992
96.7297 132.841 82.0146
104.141 131.233 82.2211
96.6319 134.707 81.7951
104.824 132.53 81.9212
104.592 133.475 80.6701
105.301 133.752 81.3596
96.6696 136.211 81.6061
106.439 136.167 80.5058
105.862 135.111 80.7668
107.043 135.723 82.0189
96.8821 138.003 81.6205
107.526 137.086 81.6866
97.3539 139.358 82.076
108.065 138.751 81.3407
108.399 140.035 80.8461
108.81 139.909 82.5409
98.3428 140.703 82.5953
98.114 141.409 81.5227
98.937 141.662 82.4755
108.81 141.836 82.115
99.75 142.834 82.1782
[...]
POINT_DATA 826
SCALARS Scalars float
LOOKUP_TABLE default
50
50
50
50
50
50
50
50
50
50
50
50
50
50
50
50
50
50
50
50
50
50
50
50
50
50
50
50
50
50
50
50
50
50
50
50
50
50
50
50
50
50
50
50
50
50
50
50
50
50
50
50
50
50
50
50
50
50
50
50
50
50
50
50
50
50
50
50
50
50
50
50
50
50
50
50
50
50
50
50
50
50
50
50
50
50
50
50
50
50
50
50
50
50
50
50
50
50
50
50
50
50
50
50
50
50
50
50
50
50
50
50
50
50
50
50
50
50
50
50
50
50
50
50
50
50
50
50
50
50
50
50
50
50
50
50
50
50
50
50
50
50
50
50
50
50
50
50
50
50
50
50
50
50
50
50
50
50
50
50
50
50
50
50
50
50
50
50
50
50
50
50
50
50
50
50
50
50
50
50
50
50
50
50
50
50
50
50
50
50
50
50
50
50
50
50
50
50
50
50
50
50
50
50
50
50
50
50
50
50
50
50
50
50
50
50
50
50
50
50
50
50
50
50
50
50
50
50
50
50
50
50
50
50
50
50
50
50
50
50
50
50
50
50
50
50
50
50
50
50
50
50
50
50
50
50
50
50
50
50
50
50
50
50
50
50
50
50
50
50
50
50
50
50
50
50
50
50
50
50
50
50
50
50
50
50
50
50
50
50
50
50
50
50
50
50
50
50
50
50
50
50
50
50
50
50
50
50
50
50
50
50
50
50
50
50
50
50
50
50
50
50
50
50
50
50
50
50
50
50
50
50
50
50
50
50
50
50
50
50
50
50
50
50
50
50
50
50
50
50
50
50
50
50
50
50
50
50
50
50
50
50
50
50
50
50
50
50
50
50
50
50
50
50
50
50
50
50
50
50
50
50
50
50
50
50
50
50
50
50
50
50
50
50
50
50
50
50
50
50
50
50
50
50
50
50
50
50
50
50
50
50
50
50
50
50
50
50
50
50
50
50
50
50
50
50
50
50
50
50
50
50
50
50
50
50
50
50
50
50
50
50
50
50
50
50
50
50
50
50
50
50
50
50
50
50
50
50
50
50
50
50
50
50
50
50
50
50
50
50
50
50
50
50
50
50
50
50
50
50
50
50
50
50
50
50
50
50
50
50
50
50
50
50
50
50
50
50
50
50
50
50
50
50
50
50
50
50
50
50
50
50
50
50
50
50
50
50
50
50
50
50
50
50
50
50
50
50
50
50
50
50
50
50
50
50
50
50
50
50
50
50
50
50
50
50
50
50
50
50
50
50
50
50
50
50
50
50
50
50
50
50
50
50
50
50
50
50
50
50
50
50
50
50
50
50
50
50
50
50
50
50
50
50
50
50
50
50
50
50
50
50
50
50
50
50
50
50
50
50
50
50
50
50
50
50
50
50
50
50
50
50
50
50
50
50
50
50
50
50
50
50
50
50
50
50
50
50
50
50
50
50
50
50
50
50
50
50
50
50
50
50
50
50
50
50
50
50
50
50
50
50
50
50
50
50
50
50
50
50
50
50
50
50
50
50
50
50
50
50
50
50
50
50
50
50
50
50
50
50
50
50
50
50
50
50
50
50
50
50
50
50
50
50
50
50
50
50
50
50
50
50
50
50
50
50
50
50
50
50
50
50
50
50
50
50
50
50
50
50
50
50
50
50
50
50
50
50
50
50
50
50
50
50
50
50
50
50
50
50
50
50
50
50
50
50
50
50
50
50
50
50
50
50
50
50
50
50
50
50
50
50
50
50
50
50
50
50
50
50
50
50
50
50
50
50
50
50
50
50
50
50
50
50
50
50
50
50
50
50
50
50
50
50
50
50
50
50
50
50
50
50
50
50
50
50
50
50
50
50
50
50
50
50
50
50
50
50
50
50
50
50
50
50
50
50
