# vtk DataFile Version 3.0
this file was written using fslvtkio
ASCII
DATASET POLYDATA
POINTS 454 float
114.514 124.687 43.0061
113.89 123.719 43.2079
113.717 125.371 43.5793
115.497 124.835 43.0768
115.06 123.292 43.1195
116.331 123.943 43.3101
114.724 125.986 43.7137
116.122 125.36 43.5456
113.023 122.603 43.8588
112.232 121.389 44.6646
111.569 122.943 44.3383
114.378 122.39 43.6984
113.709 121.14 44.4734
116.231 122.699 43.7171
115.49 121.125 44.4445
117.541 123.121 43.9917
117.16 121.538 44.437
118.558 122.028 44.8192
112.845 124.176 43.7387
111.527 124.639 44.3941
117.225 124.542 43.9076
118.826 123.782 44.6097
112.43 125.84 44.3314
111.573 126.148 44.8699
113.847 126.602 44.4684
115.758 126.459 44.3571
117.344 126.267 44.6641
118.633 125.087 44.6939
112.203 127.154 45.629
114.548 127.41 45.1829
116.451 127.384 45.3529
118.298 126.636 45.4511
110.925 120.181 45.9698
109.879 119.599 46.9165
109.499 120.969 46.1496
112.695 120.147 45.5277
111.845 119.279 46.5931
114.645 120.028 45.3794
114.017 119.254 46.3363
116.49 120.139 45.4135
115.803 119.257 46.4261
118.292 120.724 45.4861
117.745 119.465 46.6292
119.738 121.279 45.9271
119.271 119.921 46.7254
120.436 120.638 46.9848
110.696 121.756 45.2786
109.45 122.381 45.7198
119.683 122.573 45.4278
120.857 122.145 46.5756
109.78 123.793 45.4832
108.284 123.423 46.2195
108.26 124.761 46.4734
110.75 123.71 44.8765
119.987 124.336 45.5537
120.914 123.605 46.4722
109.406 125.435 46.0736
109.712 126.54 46.7388
110.814 126.07 45.6284
119.714 125.672 45.7223
120.929 125.513 47.0211
111.033 127.328 46.7973
112.466 128.168 46.8286
111.858 128.369 48.1242
113.782 128.202 46.4479
115.41 128.337 46.4849
116.97 128.138 46.5595
118.169 127.469 46.3089
119.887 126.786 46.8274
113.543 128.724 47.8919
114.885 128.812 47.8044
116.554 128.751 47.7624
108.365 120.769 46.965
107.842 119.499 48.0091
107.053 121.056 47.6248
109.777 118.634 48.0998
111.339 118.516 47.7598
113.446 118.463 47.5582
115.19 118.511 47.5551
117.309 118.762 47.6867
118.795 119.05 47.9518
121.406 121.04 47.8235
120.242 119.609 48.1807
121.48 120.137 49.0546
106.822 122.472 47.3904
105.771 121.949 48.2599
105.578 123.514 48.4576
108.017 122.254 46.654
121.963 122.626 47.8908
122.233 121.513 49.1459
106.936 124.432 47.4066
105.713 124.937 49.2844
121.904 124.01 47.7989
122.506 123.034 49.2106
106.851 125.577 48.3082
106.632 126.24 49.8148
108.15 125.766 47.3013
121.986 125.133 48.0748
122.435 124.423 49.1625
107.899 126.755 49.0903
109.189 127.118 48.2712
110.219 127.807 48.5629
111.513 128.645 49.457
117.999 128.423 47.7661
119.452 127.815 47.736
120.791 126.851 48.0048
121.823 125.976 48.7612
113.187 128.998 49.5801
114.754 129.102 49.3102
116.503 129.064 49.253
118.276 128.765 49.2506
119.861 128.148 49.1551
110.871 117.733 48.8702
110.138 116.827 50.2747
109.442 117.861 49.1085
112.677 117.654 48.7455
112.058 116.979 49.7665
114.488 117.753 48.5897
113.68 116.921 49.8434
116.267 117.812 48.7916
115.605 117.065 49.8223
117.628 117.979 49.0508
117.028 117.183 50.1232
118.494 117.677 50.0787
105.044 120.273 49.4989
104.892 119.232 50.2847
103.932 120.921 50.249
106.37 120.151 48.6284
106.484 118.927 49.3996
108.046 118.57 48.9278
119.196 118.548 49.3383
120.579 119.229 49.542
121.923 120.214 50.5484
104.691 122.016 49.3155
103.712 122.52 50.5991
122.616 121.944 50.6289
104.577 123.497 49.6525
104.071 123.931 51.1114
122.796 123.45 50.7329
104.968 124.931 50.681
105.804 125.907 51.1842
122.611 125.181 50.7704
107.528 126.95 50.6284
109.059 127.639 50.0358
110.279 128.307 49.9617
110.096 128.334 51.3529
120.961 127.458 49.6721
122.038 126.48 50.4152
111.743 128.851 51.0252
113.31 129.119 51.1658
114.657 129.206 50.7029
116.335 129.193 50.5817
117.912 129.018 50.5026
119.724 128.464 50.5295
107.47 117.826 50.0996
107.047 116.676 51.5787
106.265 117.601 50.874
108.892 117.184 50.2079
108.589 116.371 51.3749
109.826 116.071 51.5552
111.573 116.178 51.167
113.123 116.213 51.1007
115.105 116.361 51.0712
116.617 116.524 51.2642
119.739 118.004 51.0377
118.657 117.237 51.3536
120.437 117.905 52.4192
103.662 119.619 51.139
104.006 118.34 51.9404
102.857 119.653 52.2258
105.1 117.989 51.2209
121.079 118.951 51.4069
122.306 120.661 51.8088
102.994 120.97 51.4405
102.442 121.062 52.7994
122.739 122.15 51.9944
103.017 122.435 52.0772
103.808 123.914 52.6904
122.882 123.787 52.1115
104.666 124.946 52.4153
105.521 125.759 52.8291
122.69 125.223 52.3212
107.177 126.834 52.2343
108.678 127.55 52.1235
109.886 128.035 52.7518
121.14 127.634 50.9758
122.205 126.438 51.8831
111.482 128.73 52.2919
113.221 129.04 52.5656
114.605 129.17 52.424
116.276 129.192 52.1991
117.644 129.076 52.1329
119.395 128.695 52.0926
120.761 128.031 52.2874
105.48 115.784 53.4434
105.175 115.114 54.6068
104.196 116.112 54.3104
107.051 115.66 52.8111
106.444 114.864 54.0663
108.74 115.337 52.7195
108.132 114.635 53.7401
110.808 115.405 52.3676
109.887 114.716 53.3484
112.407 115.469 52.2361
111.678 114.535 53.4954
114.198 115.534 52.2843
113.589 114.765 53.2849
115.985 115.757 52.2732
115.199 114.884 53.3878
117.761 116.177 52.4039
117.23 115.298 53.4918
119.235 116.834 52.5174
118.655 115.917 53.486
120.121 116.847 53.7868
104.246 117.122 52.9023
103.337 117.149 54.2356
103.167 118.123 53.1529
105.65 116.664 52.3057
121.074 118.332 53.8265
102.262 119.534 53.7301
121.703 119.454 52.6734
122.377 121.311 53.7439
102.174 120.833 54.3741
122.756 122.742 53.3525
102.803 122.544 53.6725
103.637 123.707 54.0257
122.69 123.995 53.8587
104.741 124.694 54.2669
105.702 125.648 54.3257
122.377 125.786 53.6537
106.761 126.495 53.7823
108.443 127.221 53.6025
109.78 127.53 54.1163
111.102 128.363 53.4896
111.294 127.922 54.8298
121.576 127.272 53.2525
112.939 128.764 54.0066
114.433 128.912 54.1551
115.987 128.996 53.9425
117.455 128.948 53.6419
118.817 128.778 53.4308
120.059 128.313 53.6039
109.149 113.048 55.5666
108.804 112.369 57.2768
107.868 112.945 56.3191
110.033 112.293 56.8853
105.769 114.389 55.5895
105.308 114.497 57.0461
104.495 115.206 56.0131
107.485 113.667 55.1913
106.572 113.543 56.7734
109.02 113.878 54.5162
110.865 112.855 55.7306
110.824 113.786 54.4602
112.922 113.875 54.4166
112.34 113.024 55.5227
114.448 113.971 54.5171
113.876 113.173 55.4954
116.339 114.313 54.6323
115.751 113.523 55.6478
117.918 114.821 55.0383
117.19 114.02 55.8805
118.698 115.076 56.6331
103.559 116.615 56.1259
119.179 115.647 55.0444
120.342 117.072 55.1317
103.017 117.477 56.0074
102.508 118.257 54.7454
120.794 118.368 55.7047
102.198 119.56 55.2797
121.935 120.008 54.1963
121.389 119.539 55.2818
102.624 120.59 56.1826
102.439 121.603 54.8631
103.016 121.865 55.7923
121.848 121.116 55.4512
122.345 122.602 54.8791
103.478 122.875 55.304
104.152 123.885 55.0833
104.783 123.576 56.3581
122.135 124.626 55.3233
105.763 124.774 56.0652
106.646 125.981 55.1649
107.182 125.746 56.249
121.862 125.999 55.0718
108.198 126.76 55.1297
109.557 127.039 55.6107
111.511 127.367 56.1684
112.674 128.196 55.3609
113.09 127.666 56.6005
121.248 127.35 54.4253
120.148 127.654 55.3454
121.183 126.83 55.5406
113.953 128.503 55.3774
115.672 128.617 55.3834
117.117 128.616 55.1995
118.843 128.313 55.1257
109.058 112.225 58.8078
107.387 112.954 58.0488
111.475 112.235 56.903
110.465 111.946 58.6345
112.971 112.368 56.7239
112.164 111.851 58.4024
114.547 112.562 56.7382
113.694 111.963 58.111
116.042 112.996 57.0836
115.077 112.287 57.8961
116.405 113.081 58.4659
104.517 115.439 57.4996
105.583 115.238 58.9122
106.204 113.947 58.1722
117.327 113.734 57.2883
118.464 115.344 57.9064
104.833 116.275 58.9167
103.924 116.652 57.612
119.696 116.335 56.3042
119.233 116.596 57.4979
102.76 118.59 56.6289
103.653 117.99 57.8884
120.153 117.967 56.8582
119.467 118.448 58.126
102.527 119.632 56.6202
103.302 119.723 57.5937
120.675 119.656 56.9311
119.828 120.06 58.0835
103.474 121.001 57.2644
104.107 122.455 56.8073
104.795 121.882 58.1188
120.934 121.252 57.1308
121.633 122.474 56.5095
120.717 122.824 57.6798
105.297 123.009 57.9076
121.608 124.074 56.4253
120.667 124.57 57.4607
105.884 124.29 57.1484
107.37 125.124 57.4186
108.477 126.297 56.4439
109.055 125.481 58.0108
109.858 126.444 57.0447
110.53 125.851 58.2898
121.011 125.784 56.458
120.038 125.977 57.4025
111.359 126.75 57.3473
113.075 126.88 57.8916
114.843 127.874 56.8192
115.261 127.107 57.9019
116.447 127.934 56.7002
117.031 126.767 58.0671
118.028 127.759 56.6155
118.628 126.675 57.6343
119.485 127.354 56.3785
108.938 112.857 60.0048
107.876 113.137 59.3819
110.169 112.473 59.9468
111.828 112.357 59.937
113.384 112.069 59.4365
114.843 112.336 59.2484
115.737 113.344 59.9761
106.182 114.756 59.3808
106.982 114.228 59.4136
117.435 114.144 58.5895
116.808 114.416 59.7176
104.536 117.591 58.9881
105.673 116.748 59.8988
106.437 115.72 60.0861
117.966 115.57 59.2184
118.479 116.937 59.0369
104.426 119.064 59.0039
105.65 118.577 60.1178
118.469 118.533 59.2642
117.278 119.2 60.3002
117.686 117.489 59.9605
104.393 120.424 58.6443
105.419 119.978 59.7629
118.845 120.004 59.0194
117.364 120.725 60.178
105.692 121.588 59.4084
118.787 121.722 59.277
117.346 122.05 60.1824
119.85 121.745 58.453
106.211 122.789 59.132
106.574 124.071 58.2658
107.406 123.116 59.657
107.768 124.228 58.8589
108.544 123.302 60.0323
118.338 122.966 59.5864
119.429 123.337 58.7662
118.004 124.159 59.5393
109.133 124.586 59.155
110.579 124.776 59.5895
111.861 126.024 58.6369
112.41 124.677 60.034
113.294 126.024 58.9968
113.818 125.052 59.9043
117.956 125.429 58.8132
116.507 125.877 59.115
116.828 124.649 59.8665
119.384 125.091 58.2949
115.069 126.322 58.8276
108.247 114.28 60.5786
109.657 113.654 60.8598
111.402 113.333 61.0033
113.146 113.08 60.8087
114.535 113.042 60.3565
107.845 115.545 60.8734
109.493 114.936 61.4207
111.296 114.47 61.8371
112.558 114.076 61.8184
114.25 114.277 61.5457
115.7 114.762 60.9206
114.97 115.659 61.7067
106.98 117.444 60.8572
108.415 116.475 61.3876
109.585 116.315 61.9997
110.838 115.642 62.2667
116.15 116.329 61.0634
115.302 117.297 61.7177
117.258 116.073 60.2042
107.102 119.319 60.8696
108.041 118.468 61.3301
109.381 117.777 62.0311
116.559 118.206 60.88
115.311 118.942 61.6308
106.976 120.694 60.5721
108.44 120.34 61.2244
109.191 119.246 61.8539
116.028 120.079 61.0124
114.587 120.459 61.6476
106.966 121.961 60.1823
108.522 121.806 60.8114
110.012 120.791 61.7186
110.343 122.21 61.1086
111.66 121.348 61.723
112.397 122.579 61.1257
113.203 121.046 61.8044
114.387 122.02 61.0996
115.924 121.707 60.8487
109.792 123.524 60.3201
111.456 123.44 60.7083
113.605 123.685 60.6654
115.057 123.393 60.6725
116.584 123.426 60.3766
115.164 124.759 60.0983
112.16 115.535 62.3923
113.403 115.146 62.234
110.94 117.209 62.5158
112.518 117.19 62.6193
113.911 116.649 62.3571
110.744 118.6 62.4422
112.339 118.468 62.5906
113.805 118.136 62.4026
110.686 119.979 62.2198
112.241 119.996 62.323
113.645 119.615 62.2311
POLYGONS 904  3616
3 0 1 2
3 0 3 4
3 1 0 4
3 4 3 5
3 0 2 6
3 3 0 6
3 7 3 6
3 5 3 7
3 8 9 10
3 8 11 12
3 9 8 12
3 11 13 14
3 12 11 14
3 13 15 16
3 14 13 16
3 16 15 17
3 18 8 10
3 19 18 10
3 1 18 2
3 1 11 18
3 11 8 18
3 4 11 1
3 13 11 4
3 5 13 4
3 5 20 13
3 20 15 13
3 21 17 15
3 20 21 15
3 22 18 19
3 23 22 19
3 2 24 6
3 2 18 24
3 18 22 24
3 6 25 7
3 24 25 6
3 7 20 5
3 7 25 20
3 25 26 20
3 27 21 20
3 26 27 20
3 22 23 28
3 24 22 28
3 29 24 28
3 25 24 29
3 30 25 29
3 26 25 30
3 31 26 30
3 27 26 31
3 32 33 34
3 32 35 36
3 33 32 36
3 35 37 38
3 36 35 38
3 37 39 40
3 38 37 40
3 39 41 42
3 40 39 42
3 41 43 44
3 42 41 44
3 44 43 45
3 46 32 34
3 47 46 34
3 9 46 10
3 9 35 46
3 35 32 46
3 12 35 9
3 37 35 12
3 14 37 12
3 39 37 14
3 16 39 14
3 41 39 16
3 17 41 16
3 17 48 41
3 48 43 41
3 49 45 43
3 48 49 43
3 50 51 52
3 47 51 50
3 47 50 46
3 46 50 53
3 10 53 19
3 46 53 10
3 48 21 54
3 17 21 48
3 55 49 48
3 54 55 48
3 50 52 56
3 56 57 58
3 56 58 50
3 50 58 53
3 19 58 23
3 53 58 19
3 54 27 59
3 21 27 54
3 60 55 54
3 59 60 54
3 58 57 61
3 62 61 63
3 28 61 62
3 28 58 61
3 28 23 58
3 28 64 29
3 62 64 28
3 29 65 30
3 64 65 29
3 66 30 65
3 66 67 30
3 67 31 30
3 59 27 31
3 59 31 68
3 68 31 67
3 60 59 68
3 62 63 69
3 64 62 69
3 70 64 69
3 65 64 70
3 71 65 70
3 66 65 71
3 72 73 74
3 72 34 33
3 72 33 73
3 73 33 75
3 36 76 33
3 33 76 75
3 38 77 36
3 36 77 76
3 40 78 38
3 38 78 77
3 42 79 40
3 40 79 78
3 44 80 42
3 42 80 79
3 45 81 82
3 45 82 44
3 44 82 80
3 82 81 83
3 84 85 86
3 74 85 84
3 74 84 72
3 72 84 87
3 34 87 47
3 72 87 34
3 81 49 88
3 45 49 81
3 89 83 81
3 88 89 81
3 90 84 86
3 91 90 86
3 51 90 52
3 51 87 90
3 87 84 90
3 47 87 51
3 88 55 92
3 49 55 88
3 93 89 88
3 92 93 88
3 94 90 91
3 95 94 91
3 52 96 56
3 52 90 96
3 90 94 96
3 56 96 57
3 92 60 97
3 55 60 92
3 98 93 92
3 97 98 92
3 94 95 99
3 96 94 99
3 100 96 99
3 57 96 100
3 57 100 61
3 61 100 101
3 101 63 61
3 102 63 101
3 67 66 103
3 67 104 68
3 103 104 67
3 68 104 105
3 60 68 105
3 60 105 106
3 60 106 97
3 98 97 106
3 63 102 107
3 69 63 107
3 70 69 108
3 69 107 108
3 71 70 109
3 70 108 109
3 103 66 71
3 103 71 110
3 110 71 109
3 104 103 110
3 111 104 110
3 105 104 111
3 112 113 114
3 112 115 116
3 113 112 116
3 115 117 118
3 116 115 118
3 117 119 120
3 118 117 120
3 119 121 122
3 120 119 122
3 122 121 123
3 124 125 126
3 124 127 128
3 125 124 128
3 127 74 73
3 127 73 128
3 128 73 129
3 114 75 112
3 114 129 75
3 129 73 75
3 76 112 75
3 115 112 76
3 77 115 76
3 117 115 77
3 78 117 77
3 119 117 78
3 79 119 78
3 121 119 79
3 121 130 123
3 121 79 130
3 79 80 130
3 82 131 80
3 80 131 130
3 131 82 83
3 132 131 83
3 133 124 126
3 134 133 126
3 85 133 86
3 85 127 133
3 127 124 133
3 74 127 85
3 83 89 132
3 132 89 135
3 136 133 134
3 137 136 134
3 86 136 91
3 133 136 86
3 89 93 135
3 135 93 138
3 136 137 139
3 139 91 136
3 139 140 91
3 140 95 91
3 93 98 138
3 138 98 141
3 95 140 142
3 99 95 142
3 100 99 143
3 99 142 143
3 144 143 145
3 144 101 143
3 101 100 143
3 101 144 102
3 106 146 147
3 105 146 106
3 141 98 106
3 147 141 106
3 144 145 148
3 102 144 148
3 102 148 107
3 107 148 149
3 108 107 150
3 107 149 150
3 109 108 151
3 108 150 151
3 110 109 152
3 109 151 152
3 111 110 153
3 110 152 153
3 146 105 111
3 153 146 111
3 154 155 156
3 154 157 158
3 155 154 158
3 157 114 113
3 157 113 158
3 158 113 159
3 116 160 113
3 113 160 159
3 118 161 116
3 116 161 160
3 120 162 118
3 118 162 161
3 122 163 120
3 120 163 162
3 123 164 165
3 123 165 122
3 122 165 163
3 165 164 166
3 167 168 169
3 167 126 125
3 167 125 168
3 168 125 170
3 156 128 154
3 156 170 128
3 170 125 128
3 129 154 128
3 157 154 129
3 114 157 129
3 123 130 164
3 164 171 166
3 164 130 171
3 130 131 171
3 171 131 132
3 172 171 132
3 173 167 169
3 174 173 169
3 126 173 134
3 167 173 126
3 132 135 172
3 172 135 175
3 173 174 176
3 176 134 173
3 176 177 134
3 177 137 134
3 135 138 175
3 175 138 178
3 137 177 179
3 139 137 179
3 179 140 139
3 180 140 179
3 138 141 178
3 178 141 181
3 140 180 182
3 142 140 182
3 143 142 183
3 142 182 183
3 183 145 143
3 184 145 183
3 147 146 185
3 147 185 186
3 147 186 141
3 141 186 181
3 145 184 187
3 148 145 187
3 149 148 188
3 148 187 188
3 150 149 189
3 149 188 189
3 151 150 190
3 150 189 190
3 152 151 191
3 151 190 191
3 153 152 192
3 152 191 192
3 185 146 153
3 185 153 193
3 193 153 192
3 186 185 193
3 194 195 196
3 194 197 198
3 195 194 198
3 197 199 200
3 198 197 200
3 199 201 202
3 200 199 202
3 201 203 204
3 202 201 204
3 203 205 206
3 204 203 206
3 205 207 208
3 206 205 208
3 207 209 210
3 208 207 210
3 209 211 212
3 210 209 212
3 212 211 213
3 214 215 216
3 196 215 214
3 196 214 194
3 194 214 217
3 155 217 156
3 155 197 217
3 197 194 217
3 158 197 155
3 199 197 158
3 159 199 158
3 201 199 159
3 160 201 159
3 203 201 160
3 161 203 160
3 205 203 161
3 162 205 161
3 207 205 162
3 163 207 162
3 209 207 163
3 165 209 163
3 211 209 165
3 211 165 166
3 211 166 213
3 213 166 218
3 168 214 216
3 168 216 169
3 169 216 219
3 170 214 168
3 217 214 170
3 156 217 170
3 166 220 218
3 171 220 166
3 220 171 172
3 221 220 172
3 169 219 174
3 219 222 174
3 172 175 221
3 221 175 223
3 174 222 224
3 176 174 224
3 224 177 176
3 225 177 224
3 175 178 223
3 223 178 226
3 177 225 227
3 179 177 227
3 227 180 179
3 228 180 227
3 178 181 226
3 226 181 229
3 180 228 230
3 182 180 230
3 183 182 231
3 182 230 231
3 184 232 233
3 184 183 232
3 183 231 232
3 232 234 233
3 181 186 229
3 229 186 235
3 184 233 187
3 233 234 236
3 233 236 187
3 187 236 188
3 189 188 237
3 188 236 237
3 190 189 238
3 189 237 238
3 191 190 239
3 190 238 239
3 192 191 240
3 191 239 240
3 193 192 241
3 192 240 241
3 235 186 193
3 241 235 193
3 242 243 244
3 243 242 245
3 246 247 248
3 246 249 250
3 247 246 250
3 244 250 249
3 244 249 242
3 242 249 251
3 252 245 242
3 252 242 253
3 253 242 251
3 253 254 255
3 252 253 255
3 254 256 257
3 255 254 257
3 256 258 259
3 257 256 259
3 258 260 261
3 259 258 261
3 261 260 262
3 195 246 248
3 195 248 196
3 196 248 263
3 198 246 195
3 249 246 198
3 200 249 198
3 251 249 200
3 202 251 200
3 253 251 202
3 204 253 202
3 254 253 204
3 206 254 204
3 256 254 206
3 208 256 206
3 258 256 208
3 210 258 208
3 260 258 210
3 260 264 262
3 260 210 264
3 210 212 264
3 264 212 213
3 265 264 213
3 215 266 267
3 216 215 267
3 263 215 196
3 266 215 263
3 213 218 265
3 265 218 268
3 216 267 219
3 267 269 219
3 270 218 220
3 270 271 218
3 271 268 218
3 220 221 270
3 272 273 222
3 272 222 269
3 269 222 219
3 272 274 273
3 270 275 271
3 275 270 221
3 275 221 276
3 276 221 223
3 222 273 224
3 225 277 278
3 224 277 225
3 224 274 277
3 224 273 274
3 277 279 278
3 223 226 276
3 276 226 280
3 225 278 227
3 228 281 282
3 227 281 228
3 227 279 281
3 227 278 279
3 281 283 282
3 226 229 280
3 280 229 284
3 228 282 230
3 282 283 285
3 282 285 230
3 230 285 231
3 232 231 286
3 231 285 286
3 234 287 288
3 234 232 287
3 232 286 287
3 287 289 288
3 290 291 292
3 290 292 284
3 290 284 235
3 235 284 229
3 234 288 236
3 288 289 293
3 288 293 236
3 236 293 237
3 238 237 294
3 237 293 294
3 239 238 295
3 238 294 295
3 240 239 296
3 239 295 296
3 291 290 241
3 291 241 296
3 296 241 240
3 235 241 290
3 243 297 298
3 244 243 298
3 245 299 300
3 245 300 243
3 243 300 297
3 299 301 302
3 300 299 302
3 301 303 304
3 302 301 304
3 303 305 306
3 304 303 306
3 306 305 307
3 247 308 248
3 309 308 247
3 309 247 310
3 310 247 250
3 298 250 244
3 310 250 298
3 245 252 299
3 255 299 252
3 301 299 255
3 257 301 255
3 303 301 257
3 259 303 257
3 305 303 259
3 305 311 307
3 305 259 311
3 259 261 311
3 311 261 262
3 312 311 262
3 308 313 314
3 308 314 248
3 248 314 263
3 309 313 308
3 315 262 264
3 315 316 262
3 316 312 262
3 264 265 315
3 266 317 267
3 266 318 317
3 266 263 318
3 263 314 318
3 319 316 315
3 320 316 319
3 265 268 319
3 315 265 319
3 317 321 269
3 267 317 269
3 322 317 318
3 321 317 322
3 323 320 319
3 324 320 323
3 268 271 323
3 319 268 323
3 269 321 272
3 274 325 326
3 272 325 274
3 272 322 325
3 272 321 322
3 325 327 326
3 323 328 324
3 329 330 328
3 275 329 328
3 275 328 323
3 275 323 271
3 275 276 329
3 274 326 277
3 326 279 277
3 326 327 279
3 327 331 279
3 332 330 329
3 333 330 332
3 276 280 332
3 329 276 332
3 279 331 334
3 281 279 334
3 283 335 336
3 283 281 335
3 281 334 335
3 336 337 338
3 335 337 336
3 337 339 338
3 340 333 332
3 341 333 340
3 280 284 340
3 332 280 340
3 283 336 285
3 286 285 336
3 338 286 336
3 338 339 342
3 338 342 286
3 286 342 287
3 289 343 344
3 289 287 343
3 287 342 343
3 344 345 346
3 343 345 344
3 346 347 348
3 345 347 346
3 348 349 350
3 347 349 348
3 341 350 349
3 340 350 341
3 340 291 350
3 340 292 291
3 284 292 340
3 289 344 293
3 294 293 344
3 346 294 344
3 295 294 346
3 348 295 346
3 296 295 348
3 350 296 348
3 291 296 350
3 297 351 352
3 298 297 352
3 300 353 297
3 297 353 351
3 302 354 300
3 300 354 353
3 304 355 302
3 302 355 354
3 306 356 304
3 304 356 355
3 356 306 307
3 357 356 307
3 310 358 309
3 310 359 358
3 310 298 359
3 298 352 359
3 360 307 311
3 360 361 307
3 361 357 307
3 311 312 360
3 313 362 314
3 313 363 362
3 309 363 313
3 309 364 363
3 309 358 364
3 359 364 358
3 360 365 361
3 365 360 312
3 365 312 366
3 366 312 316
3 362 367 318
3 314 362 318
3 368 362 363
3 367 362 368
3 369 370 371
3 369 371 366
3 369 366 320
3 320 366 316
3 367 372 322
3 318 367 322
3 373 367 368
3 372 367 373
3 374 370 369
3 375 370 374
3 320 324 374
3 369 320 374
3 322 372 325
3 372 327 325
3 372 373 327
3 373 376 327
3 377 375 374
3 378 375 377
3 324 328 379
3 324 379 374
3 374 379 377
3 328 330 379
3 380 381 331
3 380 331 376
3 376 331 327
3 381 382 383
3 380 382 381
3 382 384 383
3 377 385 378
3 385 386 387
3 385 377 386
3 377 379 386
3 330 333 386
3 379 330 386
3 331 381 334
3 335 334 381
3 383 335 381
3 383 384 388
3 383 388 335
3 335 388 337
3 339 389 390
3 339 337 389
3 337 388 389
3 390 391 392
3 389 391 390
3 391 393 392
3 394 395 396
3 387 394 396
3 387 386 394
3 386 397 394
3 333 341 397
3 386 333 397
3 339 390 342
3 343 342 390
3 392 343 390
3 392 393 398
3 392 398 343
3 343 398 345
3 395 394 347
3 395 347 398
3 398 347 345
3 349 347 394
3 397 349 394
3 341 349 397
3 351 399 352
3 351 353 400
3 399 351 400
3 353 354 401
3 400 353 401
3 354 355 402
3 401 354 402
3 355 356 403
3 402 355 403
3 356 357 403
3 399 404 359
3 352 399 359
3 400 405 399
3 405 404 399
3 406 401 407
3 406 405 401
3 405 400 401
3 402 407 401
3 408 407 402
3 408 409 410
3 408 402 409
3 402 403 409
3 357 361 409
3 403 357 409
3 364 411 363
3 364 359 404
3 364 404 411
3 411 404 412
3 413 405 414
3 413 412 405
3 412 404 405
3 406 414 405
3 415 410 409
3 416 410 415
3 361 365 417
3 361 417 409
3 409 417 415
3 365 366 417
3 411 418 368
3 363 411 368
3 412 419 411
3 419 418 411
3 420 412 413
3 419 412 420
3 421 416 415
3 422 416 421
3 371 370 421
3 371 421 417
3 417 421 415
3 366 371 417
3 418 423 373
3 368 418 373
3 419 424 418
3 424 423 418
3 425 419 420
3 424 419 425
3 426 422 421
3 427 422 426
3 370 375 426
3 421 370 426
3 423 428 376
3 373 423 376
3 424 429 423
3 429 428 423
3 430 424 425
3 430 431 424
3 431 429 424
3 431 432 433
3 430 432 431
3 433 434 435
3 432 434 433
3 427 435 434
3 427 426 435
3 426 436 435
3 375 378 436
3 426 375 436
3 376 428 380
3 382 380 428
3 429 382 428
3 384 382 429
3 384 429 437
3 437 429 431
3 433 438 431
3 438 437 431
3 435 439 433
3 439 438 433
3 436 440 435
3 440 439 435
3 378 385 441
3 378 441 436
3 436 441 440
3 385 387 441
3 384 437 388
3 389 388 437
3 438 389 437
3 391 389 438
3 439 391 438
3 393 391 439
3 393 439 442
3 442 439 440
3 396 395 442
3 396 442 441
3 441 442 440
3 387 396 441
3 393 442 398
3 395 398 442
3 407 443 406
3 407 408 444
3 443 407 444
3 408 410 444
3 414 445 413
3 414 406 443
3 414 443 445
3 445 443 446
3 444 447 443
3 447 446 443
3 410 416 447
3 444 410 447
3 445 448 420
3 413 445 420
3 446 449 445
3 449 448 445
3 447 450 446
3 450 449 446
3 416 422 450
3 447 416 450
3 448 451 425
3 420 448 425
3 449 452 448
3 452 451 448
3 450 453 449
3 453 452 449
3 422 427 453
3 450 422 453
3 425 451 430
3 432 430 451
3 452 432 451
3 434 432 452
3 453 434 452
3 427 434 453
POINT_DATA 454
SCALARS Scalars float
LOOKUP_TABLE default
25
25
25
25
25
25
25
25
25
25
25
25
25
25
25
25
25
25
25
25
25
25
25
25
25
25
25
25
25
25
25
25
25
25
25
25
25
25
25
25
25
25
25
25
25
25
25
25
25
25
25
25
25
25
25
25
25
25
25
25
25
25
25
25
25
25
25
25
25
25
25
25
25
25
25
25
25
25
25
25
25
25
25
25
25
25
25
25
25
25
25
25
25
25
25
25
25
25
25
25
25
25
25
25
25
25
25
25
25
25
25
25
25
25
25
25
25
25
25
25
25
25
25
25
25
25
25
25
25
25
25
25
25
25
25
25
25
25
25
25
25
25
25
25
25
25
25
25
25
25
25
25
25
25
25
25
25
25
25
25
25
25
25
25
25
25
25
25
25
25
25
25
25
25
25
25
25
25
25
25
25
25
25
25
25
25
25
25
25
25
25
25
25
25
25
25
25
25
25
25
25
25
25
25
25
25
25
25
25
25
25
25
25
25
25
25
25
25
25
25
25
25
25
25
25
25
25
25
25
25
25
25
25
25
25
25
25
25
25
25
25
25
25
25
25
25
25
25
25
25
25
25
25
25
25
25
25
25
25
25
25
25
25
25
25
25
25
25
25
25
25
25
25
25
25
25
25
25
25
25
25
25
25
25
25
25
25
25
25
25
25
25
25
25
25
25
25
25
25
25
25
25
25
25
25
25
25
25
25
25
25
25
25
25
25
25
25
25
25
25
25
25
25
25
25
25
25
25
25
25
25
25
25
25
25
25
25
25
25
25
25
25
25
25
25
25
25
25
25
25
25
25
25
25
25
25
25
25
25
25
25
25
25
25
25
25
25
25
25
25
25
25
25
25
25
25
25
25
25
25
25
25
25
25
25
25
25
25
25
25
25
25
25
25
25
25
25
25
25
25
25
25
25
25
25
25
25
25
25
25
25
25
25
25
25
25
25
25
25
25
25
25
25
25
25
25
25
25
25
25
25
25
25
25
25
25
25
25
25
25
25
25
25
25
25
25
25
25
25
25
25
25
25
25
