# vtk DataFile Version 3.0
this file was written using fslvtkio
ASCII
DATASET POLYDATA
POINTS 750 float
96.8594 103.61 53.6178
96.6848 102.984 54.2472
96.298 103.503 53.9499
97.574 103.042 54.0607
96.2486 104.31 53.4365
95.7368 103.757 54.2216
95.497 104.454 53.81
97.1522 104.385 53.4515
97.7546 103.883 53.8425
95.6213 105.492 53.3058
94.9917 105.121 53.6657
94.8197 105.862 53.6327
96.4174 105.282 53.2654
97.0446 105.151 53.3497
97.7675 104.77 53.7057
95.2731 106.46 53.2279
94.3564 106.483 53.7101
96.0709 106.21 53.2155
96.9515 106.038 53.2955
97.7301 105.722 53.6349
94.2429 107.326 53.3709
93.7799 106.82 54.0432
93.4356 107.513 53.9493
95.3587 107.315 53.1815
96.1643 107.164 53.1878
96.8165 107.06 53.2594
97.643 106.766 53.6112
93.512 108.04 53.4602
92.8876 107.98 54.018
92.7349 108.746 53.8343
94.2947 108.027 53.2215
95.1468 107.973 53.1516
95.962 107.94 53.1689
96.7539 107.993 53.2852
97.5482 107.683 53.6106
93.2972 109.129 53.348
92.5928 109.379 53.8814
94.106 108.876 53.1959
94.8252 108.809 53.1347
95.6283 108.774 53.1662
96.3767 108.942 53.289
97.4229 109.042 53.7868
93.1669 109.871 53.3662
92.482 110.13 53.966
93.8882 109.7 53.2149
94.6617 109.458 53.1509
95.504 109.542 53.1887
96.2893 109.73 53.4118
96.9965 109.597 53.7088
93.0471 110.692 53.5151
92.471 111.061 54.2967
93.7339 110.447 53.2674
94.674 110.474 53.2231
95.3368 110.463 53.3181
96.0069 110.444 53.5527
93.029 111.238 53.6419
93.3944 111.625 53.63
93.7846 111.055 53.3517
94.4351 111.465 53.4778
95.0384 111.164 53.4754
93.8886 112.06 53.7628
97.8592 102.521 54.5431
97.7405 101.68 55.1449
97.2671 102.224 55.5636
98.3606 101.95 54.7621
96.9153 102.636 54.8862
96.334 103.171 55.0392
98.358 103.333 54.3245
98.6117 102.661 54.6616
95.7535 103.66 55.0775
95.3739 104.188 54.6041
98.3402 104.375 54.0819
99.0888 103.359 54.6812
99.0632 104.211 54.4295
99.562 103.871 54.9231
94.586 105.384 54.2757
94.9697 104.834 54.582
98.3019 105.347 53.9995
99.046 105.211 54.3854
99.5893 104.745 54.8782
94.7229 105.28 55.0781
94.226 106.131 54.6771
98.1949 106.181 53.9852
98.945 106.1 54.3832
99.5377 105.665 54.9044
93.82 106.569 54.9976
93.3479 107.292 54.9129
98.1632 107.124 54.0361
98.8494 107.088 54.6076
99.3905 106.456 54.9125
92.5704 108.627 54.4806
93.0593 108.037 54.9428
97.96 108.193 54.0417
98.6007 108.028 54.5548
92.7196 108.6 55.1335
92.3586 109.515 54.7547
97.9268 108.962 54.146
98.4382 108.914 54.5929
92.3201 110.246 54.6998
96.6787 110.527 53.9761
97.5069 109.952 54.2483
97.9939 109.544 54.4758
92.3329 110.957 55.0129
95.8594 111.076 53.8225
96.6825 111.258 54.2487
97.6003 110.967 54.7098
92.9256 111.758 54.1858
92.4674 111.821 54.9166
94.8442 111.9 53.8766
95.8123 111.927 54.1566
96.4488 111.99 54.4352
97.0852 111.781 54.739
93.1981 112.37 54.4118
94.1912 112.537 54.0518
93.6335 112.811 54.3889
94.9018 112.652 54.2421
95.5897 112.619 54.3646
96.147 112.503 54.5612
94.1308 113.25 54.6355
94.9792 113.195 54.5243
99.1352 99.7103 55.5465
99.0958 98.8852 56.1625
98.4234 99.5735 55.8694
99.6741 99.161 55.9675
98.5151 100.362 55.4489
97.9656 100.04 55.9844
97.8508 100.746 55.7292
99.3833 100.5 55.3611
100.05 99.7751 55.7073
100.128 100.532 55.5748
100.579 100.084 56.2762
98.2705 101.238 55.2581
97.6447 101.414 55.8423
99.2271 101.261 55.2897
99.9871 101.33 55.4667
100.77 101.003 56.1931
97.3814 102.117 56.4058
99.0861 101.96 55.0918
99.8231 102.059 55.3592
100.56 101.997 55.8816
96.6967 102.963 55.6269
97.0986 102.866 56.1462
99.3858 102.775 55.1147
99.8746 103.174 55.4945
100.341 102.671 55.8537
95.5365 104.131 55.4605
96.1311 103.845 55.9264
96.7049 103.434 56.2724
100.036 104.209 55.6547
95.8117 104.389 56.1253
95.2115 104.8 55.4755
100.018 105.004 55.6315
94.912 105.404 55.9457
94.3993 105.911 55.4558
100.028 105.955 55.7631
93.6246 107.087 55.541
94.2169 106.501 55.7359
99.2335 107.395 55.1086
99.8807 106.771 55.715
94.0005 107.28 56.205
93.3409 107.817 55.6802
99.105 108.11 55.1552
99.7005 107.864 55.7717
92.5515 109.266 55.4897
93.129 108.533 55.8016
98.9281 108.951 55.2857
99.5043 108.545 55.8074
92.868 109.382 56.1184
92.3643 110.062 55.4495
98.1031 110.417 55.0038
98.7618 109.765 55.4099
92.387 110.996 55.8289
98.1654 110.957 55.1934
98.6709 110.992 55.7179
92.4596 111.877 55.88
96.8379 112.544 55.0161
97.5049 112.048 55.19
98.188 111.53 55.4946
93.1863 112.797 54.8644
92.7104 112.758 55.531
95.7899 113.268 54.9072
96.6381 113.288 55.2245
97.4293 112.826 55.4465
93.3457 113.515 55.4618
93.8868 113.897 55.4067
93.3395 114.038 56.3211
94.9052 113.719 54.9865
95.6978 113.908 55.1798
96.5731 113.94 55.5051
97.1828 113.662 55.7049
93.8432 114.409 55.8655
94.2754 114.848 55.8773
94.7946 114.388 55.3844
95.3839 114.689 55.555
96.0717 114.505 55.6455
94.6638 115.209 56.0821
99.2606 98.8872 57.0241
98.5692 99.2533 56.7189
100.223 99.3768 56.2467
99.8187 98.8966 56.7008
100.393 99.4934 56.9414
97.8321 100.706 56.4554
98.295 99.9785 56.7993
100.715 100.089 57.0909
97.88 101.444 56.8226
98.2507 100.862 57.2252
101.218 100.732 57.0045
101.231 101.33 56.8527
101.46 101.272 57.6357
97.7413 102.07 57.0061
98.2962 101.81 57.6105
100.936 102.018 56.6047
101.27 101.988 57.2778
97.8896 102.464 57.5347
97.2786 102.905 56.8733
100.432 103.54 56.1185
100.863 102.938 56.5554
96.4051 104.311 56.6662
97.078 103.666 56.9709
100.445 104.526 56.1489
100.891 103.844 56.7121
95.5827 105.173 56.4992
96.1886 105.231 56.9935
97.1274 104.803 57.5441
100.457 105.384 56.2
100.937 104.935 56.7826
94.8017 105.998 56.3836
95.4686 105.969 56.8685
96.1616 105.842 57.3351
96.7127 105.502 57.5987
100.415 106.339 56.2514
100.933 105.811 56.8483
94.5933 107.203 56.7518
95.2166 106.983 57.2223
95.8837 106.485 57.5229
100.351 107.059 56.3243
100.951 106.927 57.0441
93.774 108.019 56.4939
94.3413 108.145 56.9974
95.0303 107.875 57.4812
100.068 107.812 56.3313
100.532 107.613 56.7651
93.3724 109.252 56.6284
94.0268 109.064 57.181
94.623 108.604 57.5725
99.2761 109.343 55.9105
99.9191 108.676 56.443
92.778 110.102 56.3746
93.1665 110.335 56.8693
93.7149 109.954 57.304
99.2952 110.297 56.1609
99.7583 109.853 56.5414
92.6563 111.343 56.4668
93.1195 111.419 57.2327
93.5906 110.718 57.6073
99.2243 110.88 56.1967
99.7108 110.8 56.7037
92.6535 112.341 56.3851
93.01 112.106 57.069
98.0432 112.433 55.8409
98.6458 111.922 56.1161
99.1917 111.46 56.4105
92.9167 113.3 56.169
93.0976 113.115 56.9896
97.8073 113.622 56.0954
98.5064 113 56.3566
93.2495 113.836 57.2694
96.9211 114.274 55.9864
97.7108 114.423 56.3471
98.6453 114.11 56.8119
93.9319 114.967 56.454
93.5678 114.881 57.3049
95.7913 115.116 56.087
96.8737 115.029 56.2691
97.5815 114.997 56.5513
98.1779 114.738 56.8053
94.1196 115.515 57.0896
94.9985 115.74 56.4572
94.5664 116.102 57.4464
95.8533 115.812 56.431
96.5737 115.924 56.6586
97.2367 115.643 56.7469
95.2904 116.297 56.9236
96.1237 116.451 57.0201
98.8538 99.4995 57.3247
99.9505 99.5176 57.5822
98.9097 100.168 57.6517
99.4777 100.059 58.0789
100.132 99.868 58.2378
100.75 99.8848 57.8203
101.296 100.51 57.5688
101.197 100.754 58.2822
98.7831 101.093 57.8652
99.3058 100.832 58.2322
101.139 101.627 58.4307
98.7285 101.707 57.9356
99.253 101.792 58.375
101.155 102.631 57.251
101.317 102.29 58.1063
97.6327 103.232 57.5624
98.2796 102.677 57.9801
98.7644 102.333 58.199
101.198 103.44 57.2246
101.148 102.921 58.2856
97.634 104.052 57.7793
98.2973 103.529 58.2629
101.33 104.336 57.2877
101.615 103.686 58.0815
97.5972 104.596 57.8766
98.058 104.362 58.2526
101.373 105.288 57.2626
101.81 104.63 57.8885
96.6013 106.407 57.9695
97.221 105.676 58.1158
97.6569 105.097 58.1485
101.486 106.263 57.4397
101.911 105.759 57.8881
95.8208 107.114 57.7726
96.5513 107.224 58.3626
97.3184 106.781 58.8146
101.477 106.837 57.4487
101.949 106.744 58.0372
95.9777 107.711 58.1423
96.3307 108.018 58.7275
96.9909 107.455 58.9181
100.363 108.312 56.8781
100.944 107.808 57.3084
101.422 107.411 57.6147
94.4872 109.237 57.8559
95.231 108.884 58.3827
95.713 108.312 58.4051
100.329 109.274 57.0577
100.877 108.874 57.5153
94.7357 109.589 58.4126
94.2534 109.988 58.0717
100.216 110.24 57.0858
100.831 109.718 57.6019
93.5281 111.335 57.8797
94.1143 110.895 58.3357
100.269 110.807 57.2246
100.735 110.809 57.6819
93.6886 111.748 58.3673
93.2285 112.235 57.7352
99.1515 112.466 56.8513
99.6836 111.903 57.105
100.339 111.425 57.4937
93.2728 113.202 57.888
99.1861 113.304 57.1045
99.7547 112.859 57.4896
93.3198 114.063 57.9055
99.1936 113.96 57.2297
99.6906 113.725 57.6248
93.5921 114.761 58.2178
97.8957 115.562 57.1006
98.706 114.901 57.2827
99.2405 114.532 57.5017
94.0322 115.474 58.009
94.6025 116.08 58.2099
96.9702 116.271 57.0875
97.9212 116.308 57.429
98.723 115.742 57.6818
95.2975 116.685 57.9594
96.3293 116.98 57.5177
95.8634 117.169 58.233
97.118 116.946 57.5449
97.831 116.912 57.8423
98.4258 116.431 57.8209
96.7121 117.391 58.0548
97.5117 117.403 58.2933
99.8867 100.688 58.5422
100.567 100.445 58.4889
99.9298 101.689 58.6554
100.587 101.224 58.6495
99.6947 102.54 58.6782
100.621 102.3 58.667
102.304 102.397 58.8561
102.127 101.697 59.5681
101.649 102.306 59.1403
102.733 102.1 59.2576
98.9594 103.188 58.6586
99.6386 103.151 58.8305
100.412 103.064 58.8218
101.905 103.188 58.646
101.396 102.832 59.3615
102.751 102.961 59.0188
98.8091 104.071 58.7701
99.4887 103.788 58.9438
100.232 103.847 59.3652
101.223 103.369 58.8853
102.066 103.98 58.4832
102.737 103.66 58.9423
98.4378 105.116 58.8244
99.1235 105.036 59.225
99.8548 104.483 59.5335
102.361 105.138 58.3443
102.877 104.607 58.9273
97.8993 105.801 58.7574
98.7243 105.812 59.297
99.2509 105.806 59.8158
99.5868 105.243 59.7509
102.375 106.13 58.3231
102.872 105.61 58.8602
97.9576 106.547 59.141
98.4075 106.815 59.7247
98.8543 106.374 59.8032
102.472 106.772 58.4402
102.944 106.634 58.9697
96.914 107.949 59.1346
97.3849 107.727 59.5154
97.8082 107.243 59.5339
101.379 108.3 57.9126
102.001 107.883 58.3513
102.511 107.345 58.636
95.6834 108.77 58.7333
96.1119 108.653 59.0003
96.7384 108.447 59.4465
101.323 109.305 58.0323
101.963 108.71 58.5219
94.6525 110.299 58.6854
[...]
POINT_DATA 750
SCALARS Scalars float
LOOKUP_TABLE default
0.5
0.5
0.5
0.5
0.5
0.5
0.5
0.5
0.5
0.5
0.5
0.5
0.5
0.5
0.5
0.5
0.5
0.5
0.5
0.5
0.5
0.5
0.5
0.5
0.5
0.5
0.5
0.5
0.5
0.5
0.5
0.5
0.5
0.5
0.5
0.5
0.5
0.5
0.5
0.5
0.5
0.5
0.5
0.5
0.5
0.5
0.5
0.5
0.5
0.5
0.5
0.5
0.5
0.5
0.5
0.5
0.5
0.5
0.5
0.5
0.5
0.5
0.5
0.5
0.5
0.5
0.5
0.5
0.5
0.5
0.5
0.5
0.5
0.5
0.5
0.5
0.5
0.5
0.5
0.5
0.5
0.5
0.5
0.5
0.5
0.5
0.5
0.5
0.5
0.5
0.5
0.5
0.5
0.5
0.5
0.5
0.5
0.5
0.5
0.5
0.5
0.5
0.5
0.5
0.5
0.5
0.5
0.5
0.5
0.5
0.5
0.5
0.5
0.5
0.5
0.5
0.5
0.5
0.5
0.5
0.5
0.5
0.5
0.5
0.5
0.5
0.5
0.5
0.5
0.5
0.5
0.5
0.5
0.5
0.5
0.5
0.5
0.5
0.5
0.5
0.5
0.5
0.5
0.5
0.5
0.5
0.5
0.5
0.5
0.5
0.5
0.5
0.5
0.5
0.5
0.5
0.5
0.5
0.5
0.5
0.5
0.5
0.5
0.5
0.5
0.5
0.5
0.5
0.5
0.5
0.5
0.5
0.5
0.5
0.5
0.5
0.5
0.5
0.5
0.5
0.5
0.5
0.5
0.5
0.5
0.5
0.5
0.5
0.5
0.5
0.5
0.5
0.5
0.5
0.5
0.5
0.5
0.5
0.5
0.5
0.5
0.5
0.5
0.5
0.5
0.5
0.5
0.5
0.5
0.5
0.5
0.5
0.5
0.5
0.5
0.5
0.5
0.5
0.5
0.5
0.5
0.5
0.5
0.5
0.5
0.5
0.5
0.5
0.5
0.5
0.5
0.5
0.5
0.5
0.5
0.5
0.5
0.5
0.5
0.5
0.5
0.5
0.5
0.5
0.5
0.5
0.5
0.5
0.5
0.5
0.5
0.5
0.5
0.5
0.5
0.5
0.5
0.5
0.5
0.5
0.5
0.5
0.5
0.5
0.5
0.5
0.5
0.5
0.5
0.5
0.5
0.5
0.5
0.5
0.5
0.5
0.5
0.5
0.5
0.5
0.5
0.5
0.5
0.5
0.5
0.5
0.5
0.5
0.5
0.5
0.5
0.5
0.5
0.5
0.5
0.5
0.5
0.5
0.5
0.5
0.5
0.5
0.5
0.5
0.5
0.5
0.5
0.5
0.5
0.5
0.5
0.5
0.5
0.5
0.5
0.5
0.5
0.5
0.5
0.5
0.5
0.5
0.5
0.5
0.5
0.5
0.5
0.5
0.5
0.5
0.5
0.5
0.5
0.5
0.5
0.5
0.5
0.5
0.5
0.5
0.5
0.5
0.5
0.5
0.5
0.5
0.5
0.5
0.5
0.5
0.5
0.5
0.5
0.5
0.5
0.5
0.5
0.5
0.5
0.5
0.5
0.5
0.5
0.5
0.5
0.5
0.5
0.5
0.5
0.5
0.5
0.5
0.5
0.5
0.5
0.5
0.5
0.5
0.5
0.5
0.5
0.5
0.5
0.5
0.5
0.5
0.5
0.5
0.5
0.5
0.5
0.5
0.5
0.5
0.5
0.5
0.5
0.5
0.5
0.5
0.5
0.5
0.5
0.5
0.5
0.5
0.5
0.5
0.5
0.5
0.5
0.5
0.5
0.5
0.5
0.5
0.5
0.5
0.5
0.5
0.5
0.5
0.5
0.5
0.5
0.5
0.5
0.5
0.5
0.5
0.5
0.5
0.5
0.5
0.5
0.5
0.5
0.5
0.5
0.5
0.5
0.5
0.5
0.5
0.5
0.5
0.5
0.5
0.5
0.5
0.5
0.5
0.5
0.5
0.5
0.5
0.5
0.5
0.5
0.5
0.5
0.5
0.5
0.5
0.5
0.5
0.5
0.5
0.5
0.5
0.5
0.5
0.5
0.5
0.5
0.5
0.5
0.5
0.5
0.5
0.5
0.5
0.5
0.5
0.5
0.5
0.5
0.5
0.5
0.5
0.5
0.5
0.5
0.5
0.5
0.5
0.5
0.5
0.5
0.5
0.5
0.5
0.5
0.5
0.5
0.5
0.5
0.5
0.5
0.5
0.5
0.5
0.5
0.5
0.5
0.5
0.5
0.5
0.5
0.5
0.5
0.5
0.5
0.5
0.5
0.5
0.5
0.5
0.5
0.5
0.5
0.5
0.5
0.5
0.5
0.5
0.5
0.5
0.5
0.5
0.5
0.5
0.5
0.5
0.5
0.5
0.5
0.5
0.5
0.5
0.5
0.5
0.5
0.5
0.5
0.5
0.5
0.5
0.5
0.5
0.5
0.5
0.5
0.5
0.5
0.5
0.5
0.5
0.5
0.5
0.5
0.5
0.5
0.5
0.5
0.5
0.5
0.5
0.5
0.5
0.5
0.5
0.5
0.5
0.5
0.5
0.5
0.5
0.5
0.5
0.5
0.5
0.5
0.5
0.5
0.5
0.5
0.5
0.5
0.5
0.5
0.5
0.5
0.5
0.5
0.5
0.5
0.5
0.5
0.5
0.5
0.5
0.5
0.5
0.5
0.5
0.5
0.5
0.5
0.5
0.5
0.5
0.5
0.5
0.5
0.5
0.5
0.5
0.5
0.5
0.5
0.5
0.5
0.5
0.5
0.5
0.5
0.5
0.5
0.5
0.5
0.5
0.5
0.5
0.5
0.5
0.5
0.5
0.5
0.5
0.5
0.5
0.5
0.5
0.5
0.5
0.5
0.5
0.5
0.5
0.5
0.5
0.5
0.5
0.5
0.5
0.5
0.5
0.5
0.5
0.5
0.5
0.5
0.5
0.5
0.5
0.5
0.5
0.5
0.5
0.5
0.5
0.5
0.5
0.5
0.5
0.5
0.5
0.5
0.5
0.5
0.5
0.5
0.5
0.5
0.5
0.5
0.5
0.5
0.5
0.5
0.5
0.5
0.5
0.5
0.5
0.5
0.5
0.5
0.5
0.5
0.5
0.5
0.5
0.5
0.5
0.5
0.5
0.5
0.5
0.5
0.5
0.5
0.5
0.5
0.5
0.5
0.5
0.5
0.5
0.5
0.5
0.5
0.5
0.5
0.5
0.5
0.5
0.5
0.5
0.5
0.5
0.5
0.5
0.5
0.5
0.5
0.5
0.5
0.5
