# vtk DataFile Version 3.0
this file was written using fslvtkio
ASCII
DATASET POLYDATA
POINTS 774 float
108.244 118.393 63.5158
108.084 117.432 64.0218
107.644 118.228 63.8165
109.089 118.561 63.595
108.777 117.594 63.7482
109.581 118.02 63.8853
107.825 119.248 63.4535
107.187 118.932 63.833
108.664 119.172 63.4788
109.627 119.062 64.0198
106.18 120.557 63.4484
105.77 119.714 63.9192
105.201 120.258 63.9492
106.976 120.229 63.41
106.499 119.597 63.7272
107.631 120.672 63.6169
108.523 120.087 63.6355
109.273 119.857 63.9168
105.097 121.147 63.4268
104.559 120.368 64.2932
104.435 121.2 63.7051
105.979 121.407 63.3887
106.809 121.235 63.5291
107.697 121.403 64.1009
108.302 120.899 64.138
109.163 120.475 64.2886
104.541 121.958 63.4361
104.028 121.514 63.6464
103.618 121.789 63.7897
105.283 121.971 63.3799
105.942 122.31 63.5699
106.706 122.182 63.9462
107.267 121.898 64.1232
103.702 122.633 63.4622
103.181 122.231 63.7684
102.733 122.81 63.8275
104.252 123.139 63.4908
105.271 122.811 63.5919
105.847 123.159 64.0935
106.325 122.8 64.0986
103.493 123.466 63.5934
102.638 123.819 63.8049
103.944 124.102 64.0236
104.687 123.639 63.7982
105.363 123.648 64.0788
103.242 124.22 63.8004
110.558 114.463 64.4615
109.881 113.824 65.0357
109.791 114.536 64.6908
111.306 114.47 64.4465
110.586 113.655 64.8895
111.448 113.682 64.8992
110.063 115.507 64.3798
109.425 115.17 64.8272
111.141 115.268 64.2886
112.026 114.399 64.7328
111.879 115.217 64.3446
112.842 115.539 64.578
112.709 114.825 64.6579
113.319 114.979 65.0838
109.388 116.033 64.3502
108.842 115.483 65.1253
108.398 116.138 64.8371
110.201 116.366 64.2162
111.019 116.25 64.2477
111.704 116.158 64.2908
112.596 116.154 64.5211
113.364 115.745 65.0776
108.471 116.822 64.3843
107.8 116.642 64.992
107.647 117.205 64.6071
109.463 117.217 64.1247
110.202 117.222 64.2065
110.986 116.95 64.2507
111.81 117.158 64.4504
112.704 116.839 64.8824
113.266 116.334 65.2002
107.132 118.073 64.5167
110.25 118.101 64.206
111.027 118.132 64.4921
111.852 117.956 64.9953
112.316 117.531 64.9911
106.785 118.715 64.2492
106.651 118.294 64.7256
106.285 118.678 64.7364
110.517 119.008 64.5981
111.006 119.03 65.1023
111.477 118.581 65.1003
105.903 119.213 64.4868
105.143 119.721 64.6373
109.824 120.106 64.8848
110.609 119.65 65.1719
103.709 121.15 64.2068
103.773 120.487 65.0826
103.278 121.008 64.927
104.37 119.984 65.2889
108.348 121.382 64.5077
108.754 121.479 65.0517
109.316 120.79 64.9764
102.881 121.911 64.2611
102.707 121.323 65.3607
102.247 121.947 64.8602
107.26 122.325 64.3868
107.767 122.317 64.907
108.316 121.82 64.9765
100.616 123.301 64.562
100.048 122.94 65.1382
99.775 123.783 64.9082
101.315 123.072 64.4383
100.827 122.729 65.0915
102.225 122.629 64.2204
101.686 122.305 64.8868
106.371 123.238 64.4191
106.768 123.214 64.8087
107.331 122.693 64.8407
100.419 124.209 64.4534
99.6166 124.535 65.0583
101.264 124.056 64.2972
102.033 123.786 64.2061
104.506 124.165 64.1395
105.072 124.275 64.4014
105.695 124.274 64.875
106.334 123.663 64.8352
100.174 124.934 64.6324
99.7225 125.145 65.5125
100.91 124.864 64.4701
101.769 124.769 64.3811
102.43 124.596 64.2119
103.487 124.727 64.2545
104.239 124.7 64.5085
105.143 124.783 64.9871
100.526 125.508 65.0646
101.164 125.665 65.1046
102.097 125.59 64.803
102.805 125.34 64.5412
111.24 113.002 65.3701
110.825 112.583 66.042
110.397 113.062 65.7573
111.918 112.928 65.4798
111.546 112.376 65.9391
112.483 112.756 65.8075
109.766 113.528 65.8742
109.41 114.176 65.5444
112.05 113.647 65.1909
112.791 113.502 65.6301
109.103 114.686 65.8608
112.96 114.35 65.3392
113.587 115.018 65.7451
108.649 115.143 66.0718
108.142 115.953 65.5531
113.729 115.906 66.1561
107.507 116.464 65.9276
107.114 117.167 65.5432
113.051 116.928 65.5462
113.518 116.59 66.1592
106.468 118.025 65.3015
106.678 117.3 66.1443
106.138 118.024 65.8909
112.422 117.947 65.3504
112.793 117.733 65.7687
105.735 118.656 65.3688
105.665 118.34 66.3198
105.195 118.863 66.0834
111.559 119.004 65.4675
111.961 118.88 65.9039
112.459 118.25 65.7844
104.963 119.3 65.6145
104.714 119.262 66.4175
104.392 119.626 66.0213
110.473 120.071 65.3837
110.911 119.958 65.8881
111.549 119.396 65.9384
103.755 120.258 65.9872
103.26 120.739 65.7643
109.318 121.266 65.3519
109.763 120.979 65.6544
110.29 120.507 65.6821
102.441 121.256 66.2558
102.045 121.814 65.5738
108.322 122.211 65.3114
108.765 122.126 65.7566
109.251 121.653 65.7307
99.7355 123.403 65.5719
100.285 122.986 65.9207
100.913 122.46 66.1947
101.405 122.186 65.7359
107.31 123.09 65.1886
107.776 123.017 65.6223
108.25 122.615 65.6632
99.7669 123.451 66.2722
99.4669 124.281 65.8386
100.245 122.975 66.6292
106.267 124.097 65.1719
106.725 123.964 65.4957
107.223 123.52 65.5087
99.6204 125.002 66.2437
103.635 125.348 64.7637
104.467 125.433 65.1686
105.581 125.07 65.5742
106.13 124.559 65.5029
100.378 125.732 65.8117
100.976 126.149 65.7067
100.635 126.214 66.4726
102.009 126.286 65.5092
102.749 125.908 65.0905
103.772 126.028 65.3232
104.405 126.067 65.6783
105.029 125.725 65.7867
101.604 126.586 66.2928
102.374 126.711 66.2333
102.846 126.99 66.2106
102.784 126.523 65.6056
103.643 126.59 65.7688
104.036 126.623 66.4769
103.195 126.971 65.8015
113.349 110.605 66.5763
113.031 109.837 67.2809
112.582 110.269 66.9638
113.718 110.046 67.1686
112.755 111.2 66.3839
112.065 110.499 67.1074
111.974 111.237 66.5696
113.51 111.418 66.349
114.118 110.556 66.9449
114.215 111.208 66.6899
114.559 110.954 67.4292
112.438 111.947 66.237
111.411 111.829 66.7127
113.251 111.999 66.2808
114.174 111.911 66.5948
114.596 111.652 67.213
110.816 112.229 66.9216
110.146 112.951 66.6006
113.155 112.847 66.1231
114.067 112.769 66.4629
114.61 112.42 67.1838
109.692 113.315 66.987
109.32 113.911 66.3942
113.37 114.081 65.8391
113.926 113.445 66.3528
114.541 113.386 67.0792
108.907 114.535 66.8513
113.926 114.679 66.3017
114.372 114.052 66.7662
108.558 115.048 66.6936
108.065 115.596 66.6161
113.933 115.532 66.786
114.285 114.982 66.9022
107.661 116.083 66.5546
107.139 116.657 66.5028
113.331 117.089 66.255
113.694 116.619 67.0625
106.663 117.067 66.8759
106.108 117.732 66.9461
113.224 117.51 66.1955
113.513 117.291 66.7
105.679 118.141 67.4437
105.194 118.692 66.9755
112.512 118.62 66.1814
112.889 118.261 66.501
113.231 117.852 66.4557
104.668 119.166 67.4837
104.194 119.693 66.7901
111.51 119.868 66.4031
111.916 119.524 66.6599
112.421 118.969 66.648
103.581 120.254 67.1079
103.203 120.637 66.7684
110.322 120.982 66.2476
110.743 120.814 66.6351
111.341 120.376 67.0129
101.487 121.903 66.4972
102.014 121.45 67.3172
101.315 121.946 67.2008
102.738 121.001 67.2076
109.298 122.06 66.2569
109.716 121.84 66.5714
110.336 121.356 66.8419
100.857 122.375 66.8916
100.788 122.505 67.9064
100.281 123.07 67.4935
108.319 123.028 66.2382
108.715 122.868 66.5717
109.294 122.49 66.9414
99.8491 123.565 67.2083
99.4785 124.265 66.5559
107.254 123.872 65.9699
107.683 123.774 66.3619
108.376 123.413 66.8936
99.5115 124.838 66.9322
106.146 124.939 65.9968
106.588 124.762 66.2449
107.242 124.269 66.4265
100.028 125.492 67.0014
100.525 126.123 67.1604
104.907 126.24 66.3451
105.492 125.901 66.5397
106.167 125.311 66.4872
101.384 126.636 67.1544
102.089 126.771 67.1844
103.118 126.818 67.0907
103.536 126.889 66.3205
104.062 126.734 67.1667
105.021 126.441 67.0129
113.123 109.675 68.0323
112.443 110.069 67.9028
114.34 110.284 67.7078
113.928 109.837 67.9696
114.409 110.571 68.4613
111.826 110.504 67.7961
111.425 111.171 67.3689
114.699 111.273 68.138
111.124 111.766 67.3881
114.758 111.916 68.1016
110.685 112.122 67.8908
110.186 112.707 67.5764
114.765 112.911 68.2059
109.755 113.116 67.9937
109.046 114.033 67.6471
114.565 113.738 67.6929
114.258 114.598 68.2119
114.635 113.659 68.3953
108.46 114.823 67.3922
108.668 114.35 68.1685
108.048 115.098 68.0341
114.445 114.359 67.3654
114.097 115.203 67.8377
107.636 115.743 67.3777
107.657 115.418 68.354
107.151 115.999 68.1462
113.854 115.931 68.0233
106.913 116.471 67.4878
106.647 116.504 68.3091
106.421 116.966 67.7139
113.583 116.857 67.6808
113.286 117.262 68.1089
113.569 116.552 68.5465
106.034 117.67 67.8504
113.385 117.622 67.3021
112.984 117.926 68.2607
105.66 118.111 68.4221
105.065 118.748 67.9925
112.796 118.575 67.4894
112.259 119.24 67.6601
112.516 118.746 68.2805
104.618 119.153 68.4218
104.184 119.608 67.7028
111.735 120.02 67.5723
103.601 120.135 68.0087
103.174 120.645 67.8147
110.783 121.078 67.4728
111.32 120.599 67.8857
101.454 122.004 67.8633
102.044 121.647 68.111
102.517 121.221 68.1636
109.824 122.122 67.5728
110.384 121.613 67.9565
100.935 122.665 68.6385
100.463 123.134 68.3048
101.525 122.154 68.6139
108.816 123.161 67.5093
109.372 122.692 67.9151
99.7283 124.304 67.487
100.11 123.809 67.8666
107.752 124.136 67.2577
108.058 123.968 67.9367
99.7861 124.929 67.4841
100.185 124.908 67.9877
106.706 125.024 66.9876
107.31 124.563 67.0359
100.355 125.642 67.7006
101.052 126.389 67.6469
101.012 126.282 68.2177
105.629 126.048 67.3348
106.221 125.584 67.169
101.74 126.713 68.0084
102.835 126.816 67.9012
103.592 126.793 67.7899
104.805 126.548 67.8166
112.973 109.956 68.6023
113.686 110.059 68.6071
111.551 110.799 68.1763
112.141 110.472 68.6691
112.825 110.339 69.1801
113.92 110.486 69.1025
114.572 111.126 68.9638
111.672 110.848 68.6796
111.259 111.378 68.476
114.791 112.116 68.843
110.846 111.872 68.58
110.28 112.441 68.3901
114.807 112.656 69.1208
109.878 112.901 68.692
109.279 113.594 68.7473
114.462 114.305 68.7566
114.733 113.291 69.0716
108.803 114.16 69.2004
108.193 114.855 69.0088
113.998 115.192 68.8711
114.42 114.245 69.3401
107.784 115.271 69.3823
107.17 115.909 69.0992
113.815 115.861 69.012
106.719 116.413 69.3745
106.233 117.14 68.735
113.074 117.355 69.0137
113.402 116.68 69.4646
106.028 117.673 68.9553
112.82 118.032 69.1769
105.594 118.258 69.4418
105.19 118.679 68.9921
112.087 119.387 68.468
112.458 118.792 69.024
103.982 119.622 68.5327
104.212 119.524 69.5113
103.436 120.251 69.1124
104.853 119.04 69.3664
[...]
POINT_DATA 774
SCALARS Scalars float
LOOKUP_TABLE default
0.5
0.5
0.5
0.5
0.5
0.5
0.5
0.5
0.5
0.5
0.5
0.5
0.5
0.5
0.5
0.5
0.5
0.5
0.5
0.5
0.5
0.5
0.5
0.5
0.5
0.5
0.5
0.5
0.5
0.5
0.5
0.5
0.5
0.5
0.5
0.5
0.5
0.5
0.5
0.5
0.5
0.5
0.5
0.5
0.5
0.5
0.5
0.5
0.5
0.5
0.5
0.5
0.5
0.5
0.5
0.5
0.5
0.5
0.5
0.5
0.5
0.5
0.5
0.5
0.5
0.5
0.5
0.5
0.5
0.5
0.5
0.5
0.5
0.5
0.5
0.5
0.5
0.5
0.5
0.5
0.5
0.5
0.5
0.5
0.5
0.5
0.5
0.5
0.5
0.5
0.5
0.5
0.5
0.5
0.5
0.5
0.5
0.5
0.5
0.5
0.5
0.5
0.5
0.5
0.5
0.5
0.5
0.5
0.5
0.5
0.5
0.5
0.5
0.5
0.5
0.5
0.5
0.5
0.5
0.5
0.5
0.5
0.5
0.5
0.5
0.5
0.5
0.5
0.5
0.5
0.5
0.5
0.5
0.5
0.5
0.5
0.5
0.5
0.5
0.5
0.5
0.5
0.5
0.5
0.5
0.5
0.5
0.5
0.5
0.5
0.5
0.5
0.5
0.5
0.5
0.5
0.5
0.5
0.5
0.5
0.5
0.5
0.5
0.5
0.5
0.5
0.5
0.5
0.5
0.5
0.5
0.5
0.5
0.5
0.5
0.5
0.5
0.5
0.5
0.5
0.5
0.5
0.5
0.5
0.5
0.5
0.5
0.5
0.5
0.5
0.5
0.5
0.5
0.5
0.5
0.5
0.5
0.5
0.5
0.5
0.5
0.5
0.5
0.5
0.5
0.5
0.5
0.5
0.5
0.5
0.5
0.5
0.5
0.5
0.5
0.5
0.5
0.5
0.5
0.5
0.5
0.5
0.5
0.5
0.5
0.5
0.5
0.5
0.5
0.5
0.5
0.5
0.5
0.5
0.5
0.5
0.5
0.5
0.5
0.5
0.5
0.5
0.5
0.5
0.5
0.5
0.5
0.5
0.5
0.5
0.5
0.5
0.5
0.5
0.5
0.5
0.5
0.5
0.5
0.5
0.5
0.5
0.5
0.5
0.5
0.5
0.5
0.5
0.5
0.5
0.5
0.5
0.5
0.5
0.5
0.5
0.5
0.5
0.5
0.5
0.5
0.5
0.5
0.5
0.5
0.5
0.5
0.5
0.5
0.5
0.5
0.5
0.5
0.5
0.5
0.5
0.5
0.5
0.5
0.5
0.5
0.5
0.5
0.5
0.5
0.5
0.5
0.5
0.5
0.5
0.5
0.5
0.5
0.5
0.5
0.5
0.5
0.5
0.5
0.5
0.5
0.5
0.5
0.5
0.5
0.5
0.5
0.5
0.5
0.5
0.5
0.5
0.5
0.5
0.5
0.5
0.5
0.5
0.5
0.5
0.5
0.5
0.5
0.5
0.5
0.5
0.5
0.5
0.5
0.5
0.5
0.5
0.5
0.5
0.5
0.5
0.5
0.5
0.5
0.5
0.5
0.5
0.5
0.5
0.5
0.5
0.5
0.5
0.5
0.5
0.5
0.5
0.5
0.5
0.5
0.5
0.5
0.5
0.5
0.5
0.5
0.5
0.5
0.5
0.5
0.5
0.5
0.5
0.5
0.5
0.5
0.5
0.5
0.5
0.5
0.5
0.5
0.5
0.5
0.5
0.5
0.5
0.5
0.5
0.5
0.5
0.5
0.5
0.5
0.5
0.5
0.5
0.5
0.5
0.5
0.5
0.5
0.5
0.5
0.5
0.5
0.5
0.5
0.5
0.5
0.5
0.5
0.5
0.5
0.5
0.5
0.5
0.5
0.5
0.5
0.5
0.5
0.5
0.5
0.5
0.5
0.5
0.5
0.5
0.5
0.5
0.5
0.5
0.5
0.5
0.5
0.5
0.5
0.5
0.5
0.5
0.5
0.5
0.5
0.5
0.5
0.5
0.5
0.5
0.5
0.5
0.5
0.5
0.5
0.5
0.5
0.5
0.5
0.5
0.5
0.5
0.5
0.5
0.5
0.5
0.5
0.5
0.5
0.5
0.5
0.5
0.5
0.5
0.5
0.5
0.5
0.5
0.5
0.5
0.5
0.5
0.5
0.5
0.5
0.5
0.5
0.5
0.5
0.5
0.5
0.5
0.5
0.5
0.5
0.5
0.5
0.5
0.5
0.5
0.5
0.5
0.5
0.5
0.5
0.5
0.5
0.5
0.5
0.5
0.5
0.5
0.5
0.5
0.5
0.5
0.5
0.5
0.5
0.5
0.5
0.5
0.5
0.5
0.5
0.5
0.5
0.5
0.5
0.5
0.5
0.5
0.5
0.5
0.5
0.5
0.5
0.5
0.5
0.5
0.5
0.5
0.5
0.5
0.5
0.5
0.5
0.5
0.5
0.5
0.5
0.5
0.5
0.5
0.5
0.5
0.5
0.5
0.5
0.5
0.5
0.5
0.5
0.5
0.5
0.5
0.5
0.5
0.5
0.5
0.5
0.5
0.5
0.5
0.5
0.5
0.5
0.5
0.5
0.5
0.5
0.5
0.5
0.5
0.5
0.5
0.5
0.5
0.5
0.5
0.5
0.5
0.5
0.5
0.5
0.5
0.5
0.5
0.5
0.5
0.5
0.5
0.5
0.5
0.5
0.5
0.5
0.5
0.5
0.5
0.5
0.5
0.5
0.5
0.5
0.5
0.5
0.5
0.5
0.5
0.5
0.5
0.5
0.5
0.5
0.5
0.5
0.5
0.5
0.5
0.5
0.5
0.5
0.5
0.5
0.5
0.5
0.5
0.5
0.5
0.5
0.5
0.5
0.5
0.5
0.5
0.5
0.5
0.5
0.5
0.5
0.5
0.5
0.5
0.5
0.5
0.5
0.5
0.5
0.5
0.5
0.5
0.5
0.5
0.5
0.5
0.5
0.5
0.5
0.5
0.5
0.5
0.5
0.5
0.5
0.5
0.5
0.5
0.5
0.5
0.5
0.5
0.5
0.5
0.5
0.5
0.5
0.5
0.5
0.5
0.5
0.5
0.5
0.5
0.5
0.5
0.5
0.5
0.5
0.5
0.5
0.5
0.5
0.5
0.5
0.5
0.5
0.5
0.5
0.5
0.5
0.5
0.5
0.5
0.5
0.5
0.5
0.5
0.5
0.5
0.5
0.5
0.5
0.5
0.5
0.5
0.5
0.5
0.5
0.5
0.5
0.5
0.5
0.5
0.5
0.5
0.5
0.5
0.5
0.5
0.5
0.5
0.5
0.5
0.5
0.5
0.5
0.5
0.5
0.5
0.5
0.5
0.5
0.5
0.5
0.5
0.5
0.5
0.5
0.5
