# vtk DataFile Version 3.0
this file was written using fslvtkio
ASCII
DATASET POLYDATA
POINTS 862 float
105.534 94.801 68.1987
104.46 94.0371 68.3612
104.513 95.5708 68.4235
106.713 94.7534 68.3391
105.82 93.4103 68.4153
108.255 94.6162 68.716
107.545 93.4797 68.6036
109.364 95.1383 69.2478
109.226 93.4696 69.3486
110.302 95.0901 70.0737
105.859 96.0647 68.4963
107.292 96.0006 68.6767
108.645 96.391 69.2521
109.799 96.6011 70.1547
105.827 91.4173 69.4705
105.071 90.2499 70.7527
104.463 91.4899 69.6332
107.529 91.1784 69.8358
106.656 90.3381 70.6391
108.032 90.3805 71.1776
102.478 93.9405 69.0729
102.107 92.6895 69.5994
101.474 93.5971 69.6291
104.197 92.8458 68.9221
102.934 92.1429 69.6439
106.068 92.4462 68.8537
107.694 92.3105 69.1498
109.008 91.2043 70.8892
109.132 92.2359 70.0757
109.935 92.1376 71.6746
101.61 95.6971 69.078
100.683 94.5651 69.5794
99.6807 95.3679 69.9371
103.226 95.1846 68.6998
110.965 94.4159 70.4671
110.275 93.3772 70.4512
111.139 94.0242 71.4092
100.899 97.3802 69.1315
99.4126 97.46 69.6737
102.67 96.9743 68.7674
104.081 96.9397 68.6862
106.105 97.5024 68.8302
107.725 97.4987 69.2311
109.011 97.8796 70.1545
110.517 96.9408 71.4138
110.992 95.4644 71.1136
100.583 99.0863 69.0811
99.1342 99.0768 69.5295
102.442 98.9539 68.8439
103.925 98.9136 68.8008
105.493 98.6509 68.9653
107.153 98.9789 69.5499
109.159 99.1312 71.0418
110.167 97.9903 71.5865
100.43 100.796 68.9486
98.7542 100.585 69.4022
102.293 100.489 68.8559
103.926 100.544 68.9692
105.653 100.16 69.1604
107.028 100.624 69.8352
108.273 100.087 70.5895
98.8602 102.594 68.961
97.2721 100.983 69.8685
97.3742 102.682 69.3462
100.84 102.685 68.8724
101.985 102.324 68.8785
103.887 102.328 69.1118
105.457 102.354 69.5021
106.784 102.236 70.115
97.2724 104.319 69.0068
96.0188 102.95 69.785
95.6847 104.508 69.4544
98.8875 104.221 68.8644
100.416 104.222 68.8825
102.2 104.173 69.0078
103.388 103.718 69.1495
105.238 103.993 69.7456
106.694 104.059 70.6729
95.4493 106.201 69.1451
94.3078 104.64 70.086
93.8881 106.327 69.7722
97.0932 106.34 68.8847
98.7053 106.002 68.8488
100.134 105.668 68.8978
102.003 105.94 69.188
103.661 105.512 69.5152
105.151 106.145 70.468
106.132 105.231 70.6839
93.6832 108.077 69.5478
92.6851 106.699 70.5007
92.2869 108.197 70.4304
95.2506 108.259 69.0439
96.687 107.821 68.8539
98.1852 107.665 68.8593
100.017 107.363 68.9804
101.529 107.609 69.4592
102.913 107.142 69.7988
104.19 107.188 70.3328
93.0115 109.68 69.6332
91.7228 109.86 70.5918
94.5832 109.774 69.1006
96.1742 110.012 68.8655
97.5661 109.302 68.8446
99.0965 109.379 69.012
100.862 109.038 69.5645
92.7379 111.667 69.6278
91.6269 111.877 70.4438
94.4273 111.514 69.0959
95.9749 111.702 68.9411
97.7136 111.168 68.9402
98.9698 111.052 69.2591
100.392 110.488 69.6619
92.6292 113.378 69.602
91.3294 113.693 70.6731
94.0052 113.391 69.1223
95.6528 113.34 68.9546
97.211 113.218 69.044
98.8643 112.754 69.5454
92.3167 115.106 69.8268
91.2846 115.69 70.8009
94.0092 115.381 69.1465
95.6193 115.381 69.0229
97.0908 115.208 69.1653
98.5643 114.622 69.6411
92.4218 117.043 69.8048
91.3501 117.67 70.9932
93.8367 116.998 69.2701
95.3581 117.11 69.1439
96.8595 117.038 69.2977
98.2088 116.441 69.7096
92.0544 118.696 70.4486
91.473 119.665 71.6463
93.4694 118.897 69.6271
94.9064 118.794 69.3739
96.3846 119.208 69.5953
97.8982 118.476 69.9638
92.2361 120.216 70.7721
92.7454 121.259 70.8509
93.4225 120.434 70.1655
94.8703 120.633 69.9927
96.5417 121.201 70.4051
97.6594 120.012 70.3244
93.6528 121.861 70.9873
95.1684 122.03 70.6468
101.808 91.6021 70.6945
101.669 90.5701 72.064
100.801 91.6135 71.2667
103.3 90.9682 70.462
103.051 90.2843 71.5497
104.913 89.757 71.8944
106.418 89.8026 71.8651
109.211 90.9807 72.4776
107.862 90.0856 72.3743
109.471 91.5181 73.9404
100.3 93.4254 70.2896
100.043 92.1633 71.251
99.4044 92.7685 71.4817
110.259 92.5116 73.9626
98.951 94.5023 70.7639
98.4149 93.2347 72.1416
97.7872 94.3958 72.0555
110.764 92.9618 72.1411
111.362 94.1005 72.6704
98.0793 96.3496 70.7493
97.0974 95.8957 71.8629
111.232 96.2444 72.0293
111.39 95.3394 72.5056
96.7575 97.584 71.1744
96.013 96.9449 72.3515
95.2854 98.1577 72.4195
98.023 97.8726 70.3377
110.28 98.6346 72.1748
110.858 97.9209 73.5589
111.066 96.5516 73.2994
95.7265 99.4998 71.1505
94.4891 99.7341 72.2962
97.0657 99.3658 70.456
108.245 101.456 70.9744
109.358 100.531 71.8015
110.313 99.3073 72.8615
94.4767 101.135 71.3356
93.8206 100.607 72.2587
93.2073 101.425 72.4399
95.8505 101.062 70.4945
107.947 103.01 71.2373
109.137 102.058 72.0701
93.211 103.03 71.4469
92.35 102.703 72.5735
92.0305 104.327 72.1294
94.4658 103.072 70.5334
108.134 103.964 71.6736
109.219 103.792 72.9513
92.9524 104.733 70.9831
91.7334 106.108 71.7159
106.247 106.243 71.2159
107.305 106.068 72.1784
108.182 104.881 72.3688
91.1705 108.292 71.7536
102.303 108.981 70.1613
103.835 108.956 70.9368
104.986 108.294 71.3538
106.245 107.198 71.8576
90.867 110.222 71.6743
101.751 110.416 70.2941
103.244 110.536 71.1333
104.827 110.26 72.2309
90.7587 112.64 71.486
100.269 112.207 70.065
101.649 112.371 70.7489
103.068 112.185 71.6609
104.133 111.663 72.3134
90.6075 114.669 71.7986
99.947 113.915 70.2789
101.27 113.962 71.106
102.476 113.388 71.7616
90.5816 116.558 72.3129
99.7445 115.786 70.5737
100.902 115.584 71.3782
90.9138 118.274 72.2374
99.6067 117.292 70.8063
101.076 117.462 72.1809
90.9561 119.644 73.1051
98.9649 118.545 70.6963
100.432 118.474 71.9506
92.2319 121.414 71.8903
91.5124 121.207 73.3525
97.7509 121.013 70.761
98.7645 120.543 71.4838
92.5304 122.379 72.8602
93.6834 123.085 72.3515
93.404 123.452 73.7926
95.0442 123.286 71.8845
96.5083 122.668 71.4133
97.6522 121.855 71.3851
94.7949 123.986 73.3628
96.3047 123.884 72.9233
100.06 91.3646 72.4055
101.035 90.2872 73.7638
99.4895 91.0824 73.7908
102.378 89.8383 73.6805
103.318 89.7919 73.0663
104.751 89.5687 72.9486
106.485 89.6442 73.4521
108.292 90.3363 73.7905
107.655 90.0195 74.3068
98.9424 91.9884 73.0282
98.6917 91.6636 75.1766
97.8086 92.884 73.7395
108.464 91.0289 75.0184
109.516 92.3379 75.4963
96.9748 94.1197 73.6798
110.922 93.6241 73.7624
110.522 93.8607 75.2598
96.1666 95.7427 73.1189
95.8476 95.116 74.3287
95.0362 96.921 74.0305
111.094 94.9897 74.0864
110.853 95.5651 75.1616
94.3753 98.2269 73.8536
111.049 97.4889 75.0951
93.402 100.097 73.3268
93.3108 99.1746 74.7297
92.565 100.414 74.8078
110.159 100.771 73.1059
110.955 99.1906 74.6825
92.3436 101.468 73.6621
91.6831 101.742 75.1882
91.5299 103.151 73.7771
110.158 102.263 73.6405
110.87 100.851 74.8091
91.109 105.031 73.633
110.095 103.356 73.8265
110.674 102.498 75.0175
90.8969 106.473 73.2702
108.205 105.861 72.9307
109.108 105.423 73.9308
109.985 104.156 74.5123
90.5902 108.29 72.9766
105.888 109.103 72.5895
107.161 107.986 73.2613
108.062 106.773 73.5697
90.2044 109.966 72.8696
89.7739 109.312 74.0353
89.4596 110.775 74.1878
105.913 110.137 73.1143
106.7 110.029 74.0993
90.1082 111.733 72.6843
89.4415 112.322 74.0314
103.948 113.463 72.966
105.134 112.364 73.6967
105.978 111.022 73.9427
90.0508 113.485 72.7034
89.3186 113.875 74.4666
102.232 114.946 72.2081
103.354 115.19 73.2816
104.753 114.095 74.2744
89.8442 115.198 73.3434
89.2873 115.214 75.1149
102.263 116.339 72.8144
103.264 116.593 74.0699
104.345 115.473 74.6797
89.9465 116.474 73.7124
90.5081 118.424 74.0525
102.05 117.537 73.1164
102.778 117.977 74.3238
90.8426 119.952 74.5266
99.8728 119.814 72.181
101.155 119.383 73.3041
101.922 118.68 73.7277
91.279 121.231 75.2032
99.7865 120.824 72.5894
100.592 120.738 73.5507
92.0034 122.292 74.5135
93.1885 123.519 75.5008
97.5531 123.171 72.5767
98.7122 122.187 72.5993
99.7949 121.808 73.3747
94.7784 124.302 74.8921
96.5461 124.419 74.6419
97.8853 123.837 73.9763
99.8918 90.8106 75.1443
101.143 90.2368 75.3738
102.271 89.857 75.2168
103.926 89.6821 74.9798
105.268 89.5959 74.2957
106.842 90.0307 74.7881
105.967 89.8509 75.4229
98.4863 91.7683 76.6016
97.3004 92.8217 75.518
100.025 91.0973 76.6661
106.757 90.617 76.3702
108.39 91.4324 76.0147
107.892 91.4699 76.7363
96.4072 93.9217 75.151
96.2832 93.6121 76.8366
95.4074 95.1216 75.7399
108.829 92.6177 76.8906
110.238 94.4023 76.8706
94.5935 96.6215 75.8848
110.864 96.0491 76.5053
93.8677 97.7972 75.5601
93.7387 97.4561 77.3657
92.9593 98.9334 76.5669
111.096 97.8879 76.3677
92.2157 100.404 76.6604
111.167 99.3454 76.2532
91.4524 101.815 76.7129
91.0663 103.455 75.2105
111.107 101.224 76.2394
90.7049 104.964 75.2494
110.918 102.95 76.4694
90.3931 106.42 74.9552
109.666 105.715 75.5088
110.412 104.532 76.1274
90.0562 107.813 74.5453
89.6099 107.53 76.0238
89.2933 109.066 75.7041
107.944 108.068 74.5028
108.966 107.114 75.5435
89.0926 110.786 75.7768
107.526 109.663 75.3094
108.594 108.386 76.0904
89.0319 112.252 75.8817
106.077 112.197 74.955
106.997 111.181 75.7683
89.034 113.739 76.0545
105.553 113.876 75.4626
106.715 112.53 76.4677
89.0686 114.983 76.6776
104.142 116.718 75.3602
105.189 115.456 76.0798
89.6888 117.044 74.9996
89.3795 116.738 76.5377
103.56 118.239 75.8719
104.677 117.038 76.5742
90.0387 118.367 75.6814
90.6627 119.693 75.9893
101.802 119.987 74.6364
102.958 119.511 75.9777
91.3058 121.124 77.1842
101.245 121.56 75.4502
102.34 120.607 75.9827
92.0124 122.394 76.4113
93.0739 123.39 77.0323
98.9857 123.25 74.2125
100.272 122.516 74.9404
94.5722 124.297 76.3016
96.6101 124.631 76.202
98.1749 124.314 75.7552
101.777 90.3823 76.6692
103.458 90.0442 76.448
104.994 90.0782 76.2795
98.4491 91.9956 78.3912
97.318 92.6505 77.742
100.071 91.3395 78.0355
102.167 90.8826 77.9829
103.94 90.6295 77.6747
105.499 90.9038 77.7281
107.317 91.6531 77.3689
106.44 91.5175 78.1315
96.4777 93.5579 78.537
95.3518 94.9005 77.2971
107.279 92.3995 78.4013
109.023 93.452 77.7344
108.596 93.7772 78.7637
94.6148 96.1664 78.1399
109.871 94.9299 78.2901
110.75 96.2934 77.967
93.6582 97.5801 78.8308
92.8663 98.987 78.1077
111.074 98.0558 78.088
92.0396 100.704 78.3588
111.251 99.8715 77.8912
91.3734 102.011 78.4698
90.8725 103.396 76.952
111.233 101.296 77.9428
90.3416 104.975 77.3587
[...]
POINT_DATA 862
SCALARS Scalars float
LOOKUP_TABLE default
50
50
50
50
50
50
50
50
50
50
50
50
50
50
50
50
50
50
50
50
50
50
50
50
50
50
50
50
50
50
50
50
50
50
50
50
50
50
50
50
50
50
50
50
50
50
50
50
50
50
50
50
50
50
50
50
50
50
50
50
50
50
50
50
50
50
50
50
50
50
50
50
50
50
50
50
50
50
50
50
50
50
50
50
50
50
50
50
50
50
50
50
50
50
50
50
50
50
50
50
50
50
50
50
50
50
50
50
50
50
50
50
50
50
50
50
50
50
50
50
50
50
50
50
50
50
50
50
50
50
50
50
50
50
50
50
50
50
50
50
50
50
50
50
50
50
50
50
50
50
50
50
50
50
50
50
50
50
50
50
50
50
50
50
50
50
50
50
50
50
50
50
50
50
50
50
50
50
50
50
50
50
50
50
50
50
50
50
50
50
50
50
50
50
50
50
50
50
50
50
50
50
50
50
50
50
50
50
50
50
50
50
50
50
50
50
50
50
50
50
50
50
50
50
50
50
50
50
50
50
50
50
50
50
50
50
50
50
50
50
50
50
50
50
50
50
50
50
50
50
50
50
50
50
50
50
50
50
50
50
50
50
50
50
50
50
50
50
50
50
50
50
50
50
50
50
50
50
50
50
50
50
50
50
50
50
50
50
50
50
50
50
50
50
50
50
50
50
50
50
50
50
50
50
50
50
50
50
50
50
50
50
50
50
50
50
50
50
50
50
50
50
50
50
50
50
50
50
50
50
50
50
50
50
50
50
50
50
50
50
50
50
50
50
50
50
50
50
50
50
50
50
50
50
50
50
50
50
50
50
50
50
50
50
50
50
50
50
50
50
50
50
50
50
50
50
50
50
50
50
50
50
50
50
50
50
50
50
50
50
50
50
50
50
50
50
50
50
50
50
50
50
50
50
50
50
50
50
50
50
50
50
50
50
50
50
50
50
50
50
50
50
50
50
50
50
50
50
50
50
50
50
50
50
50
50
50
50
50
50
50
50
50
50
50
50
50
50
50
50
50
50
50
50
50
50
50
50
50
50
50
50
50
50
50
50
50
50
50
50
50
50
50
50
50
50
50
50
50
50
50
50
50
50
50
50
50
50
50
50
50
50
50
50
50
50
50
50
50
50
50
50
50
50
50
50
50
50
50
50
50
50
50
50
50
50
50
50
50
50
50
50
50
50
50
50
50
50
50
50
50
50
50
50
50
50
50
50
50
50
50
50
50
50
50
50
50
50
50
50
50
50
50
50
50
50
50
50
50
50
50
50
50
50
50
50
50
50
50
50
50
50
50
50
50
50
50
50
50
50
50
50
50
50
50
50
50
50
50
50
50
50
50
50
50
50
50
50
50
50
50
50
50
50
50
50
50
50
50
50
50
50
50
50
50
50
50
50
50
50
50
50
50
50
50
50
50
50
50
50
50
50
50
50
50
50
50
50
50
50
50
50
50
50
50
50
50
50
50
50
50
50
50
50
50
50
50
50
50
50
50
50
50
50
50
50
50
50
50
50
50
50
50
50
50
50
50
50
50
50
50
50
50
50
50
50
50
50
50
50
50
50
50
50
50
50
50
50
50
50
50
50
50
50
50
50
50
50
50
50
50
50
50
50
50
50
50
50
50
50
50
50
50
50
50
50
50
50
50
50
50
50
50
50
50
50
50
50
50
50
50
50
50
50
50
50
50
50
50
50
50
50
50
50
50
50
50
50
50
50
50
50
50
50
50
50
50
50
50
50
50
50
50
50
50
50
50
50
50
50
50
50
50
50
50
50
50
50
50
50
50
50
50
50
50
50
50
50
50
50
50
50
50
50
50
50
50
50
50
50
50
50
50
50
50
50
50
50
50
50
50
50
50
50
50
50
50
50
50
50
50
50
50
50
50
50
50
50
50
50
50
50
50
50
50
50
50
50
50
50
50
50
50
50
50
50
50
50
50
50
50
50
