# vtk DataFile Version 3.0
this file was written using fslvtkio
ASCII
DATASET POLYDATA
POINTS 400 float
85.2429 106.186 57.6837
84.7781 105.67 57.9296
84.5045 106.483 57.8243
85.485 105.745 58.0196
85.1352 106.821 57.6368
84.723 107.23 57.8867
85.7979 106.545 58.0166
85.519 107.309 57.9865
83.5223 104.311 58.445
83.0451 103.731 58.802
82.5455 104.561 58.7659
84.3109 104.233 58.4536
83.8462 103.616 58.7485
84.6465 103.63 58.8661
83.1635 105.278 58.3703
82.5352 105.575 58.6946
84.0999 105.021 58.2624
85.1934 104.204 58.7269
85.3049 105.1 58.328
86.0389 105.209 58.5156
86.1073 104.289 59.0844
86.7285 104.931 59.0769
83.2647 106.044 58.3416
82.5789 106.372 58.6686
84.0714 105.712 58.1909
86.1768 106.086 58.3759
86.7131 105.584 58.8564
83.3022 106.986 58.3623
82.5363 107.056 58.7275
84.1297 106.938 58.1836
86.1579 107.393 58.3079
86.9726 106.404 58.808
86.9093 107.245 58.6737
87.4626 106.711 59.295
82.8579 107.508 58.7793
83.3527 108.005 58.7109
84.0396 107.744 58.3502
84.8879 107.793 58.1964
85.942 108.042 58.3618
86.7335 108.108 58.7287
87.3956 107.643 59.2892
83.6522 108.447 58.8394
84.283 108.964 58.8311
84.6873 108.65 58.5328
85.6709 108.818 58.5962
86.626 109.201 59.2192
87.2816 108.476 59.3424
84.9901 109.321 58.8621
86.0591 109.619 59.2026
82.382 102.983 59.6038
81.9909 102.72 60.1253
81.7059 103.533 59.774
83.3525 102.864 59.4691
82.8898 102.401 60.1018
84.4818 102.969 59.375
83.8611 102.362 60.0261
85.3526 102.947 59.6777
84.9049 102.503 60.0146
85.6304 102.594 60.3107
82.228 103.912 59.2672
81.5097 104.327 59.7517
85.2569 103.507 59.2193
86.2786 103.064 60.3616
86.0467 103.551 59.5686
86.6226 103.84 59.8446
81.9319 104.83 59.2658
81.3217 105.499 59.8533
87.374 105.232 59.6274
86.9176 104.396 59.6643
87.5868 104.694 60.4847
81.818 105.931 59.3221
81.425 106.357 59.8161
87.3347 105.867 59.3834
87.7361 105.817 60.1879
81.9251 106.953 59.3543
81.54 107.457 60.1499
87.782 106.639 60.1295
82.1738 107.718 59.5056
82.9786 108.147 59.1286
82.4761 108.216 59.5646
87.8019 107.743 60.2228
82.9281 108.699 59.6185
83.9342 109.146 59.2431
83.4029 109.221 59.6357
87.2763 109.024 59.5575
87.6801 108.571 60.1648
83.9165 109.614 59.6623
84.6723 109.914 59.4293
84.2921 110.151 59.831
85.6162 110.16 59.5221
86.6494 109.973 59.9209
87.1896 109.395 59.9311
84.7617 110.672 60.1458
85.9868 110.56 60.0644
83.3706 101.854 60.4871
83.0388 101.485 61.3119
82.5748 101.914 60.9123
84.1208 101.81 60.6021
83.89 101.41 61.1653
84.4885 101.572 61.1843
81.8716 102.503 61.08
81.387 103.135 60.7587
84.942 102.104 60.9312
86.1585 102.644 60.6707
85.6852 102.326 61.0431
86.4951 102.798 61.214
80.9334 103.866 60.5992
80.8252 103.477 61.4991
80.5377 104.274 61.0295
87.2585 104.042 60.451
86.8921 103.323 60.8381
87.5686 104.1 61.2252
80.837 104.807 60.452
80.4335 105.028 61.1944
87.8141 105.073 61.2604
80.8119 105.471 60.6112
81.1068 106.497 60.5547
87.928 105.852 61.1624
81.1368 107.624 61.0922
87.9514 107.104 60.7603
82.0252 108.103 60.0524
81.4602 108.321 60.949
87.9535 108.103 60.87
82.296 108.775 60.3013
82.9804 109.184 60.058
82.476 109.273 60.582
87.8721 108.715 61.0202
82.9198 109.709 60.609
83.8826 110.262 60.3025
83.3572 110.276 60.6939
87.2873 109.869 60.4346
87.6786 109.346 60.9708
83.8732 110.77 60.8379
84.6574 111.143 60.7087
84.2824 111.397 61.2717
85.5619 111.149 60.5683
86.5824 110.834 60.8196
87.3201 110.148 61.0494
85.093 111.652 61.4323
86.1663 111.331 61.1987
83.0426 101.451 61.9605
82.4131 101.875 61.6492
83.7378 101.321 61.7721
85.1734 101.841 61.5699
84.448 101.393 61.8401
85.2761 101.842 62.2991
82.0031 102.36 62.2387
81.385 102.85 61.7249
85.8628 102.252 62.0354
86.6913 102.847 62.3058
80.769 103.508 62.299
80.4179 104.133 61.9216
87.1664 103.38 61.6986
87.6659 104.239 62.0044
80.2589 105.017 62.0904
87.8744 105.02 62.1456
80.6317 105.954 61.1532
80.2764 105.868 62.0585
88.1852 105.58 61.8301
88.3198 106.554 61.447
88.5377 105.962 62.208
80.6467 106.751 61.4487
80.2998 106.976 62.4805
88.3211 107.263 61.3642
88.5952 106.75 62.0284
80.7402 107.55 61.7449
81.0891 108.346 61.8185
88.3634 107.95 61.6248
88.5928 107.409 62.0699
82.0618 109.193 61.0447
81.4546 109.343 61.9586
87.9682 108.807 61.8457
88.3632 108.027 62.2797
82.2659 109.712 61.2753
82.9346 110.195 61.0928
82.5004 110.22 61.477
87.7449 109.545 61.8517
82.875 110.749 61.7067
83.654 111.237 61.4966
83.3261 111.282 61.8198
86.7223 111.105 61.8479
87.3994 110.365 62.0154
84.0191 111.792 62.1034
85.0023 111.92 62.1058
86.111 111.592 61.9689
82.6296 101.853 62.3521
83.255 101.657 62.749
83.9716 101.434 62.6001
84.7563 101.623 62.6099
84.4651 101.853 63.2255
82.0612 102.461 63.2781
81.3878 102.876 62.9461
83.0151 102.158 63.2009
85.2699 102.189 63.0354
86.0164 102.377 62.7884
86.7496 102.997 63.183
80.7246 103.585 62.9828
80.3754 104.248 62.6851
87.3151 103.588 62.8427
87.5715 104.173 63.1928
80.2285 105.244 62.8332
87.8358 105.068 63.4997
80.2124 105.957 63.0719
88.2544 105.457 62.688
88.5433 106.154 62.9781
80.2058 106.78 63.3292
88.5998 106.809 62.905
80.4891 107.71 62.5108
80.276 107.6 63.3272
88.4448 107.512 62.8418
88.0122 107.946 63.1258
88.2622 107.243 63.4022
80.6473 108.331 62.739
81.083 109.236 62.8745
87.8924 108.895 62.8125
81.9801 110.029 62.0205
81.4525 110.071 62.8948
87.7348 109.648 62.8332
82.3133 110.763 62.3567
82.9472 111.213 62.2161
82.4905 111.237 62.6501
86.971 110.956 62.8549
87.3602 110.499 63.2
82.8562 111.619 62.8692
83.8261 112.207 62.7119
83.4795 112.332 63.273
84.6312 112.258 62.5533
85.7491 112.119 62.5701
86.5534 111.566 62.7754
84.1816 112.579 63.3707
85.2798 112.537 63.3317
86.1059 112.265 63.4015
83.6915 101.859 63.2816
82.2779 102.548 64.051
81.5762 102.879 63.7837
83.2119 102.363 63.9853
84.1171 102.25 63.869
85.2535 102.4 63.9303
85.9369 102.475 63.6519
86.4828 102.84 63.8439
80.5647 104.183 63.5507
81.1054 103.503 63.7398
87.0443 103.515 63.8635
87.4232 104.293 64.2087
80.7684 104.328 64.2154
80.2984 105.18 63.6324
87.7451 105.139 64.1967
80.2386 105.903 63.8769
88.1473 105.664 63.521
87.8376 105.899 64.3165
80.2536 106.758 64.2675
88.2853 106.443 63.5699
87.9232 107.108 63.9689
80.2837 107.432 64.365
87.9037 107.97 63.8338
80.5396 108.627 63.4172
80.3992 108.458 64.2669
87.8278 108.903 63.6833
80.6647 109.129 63.8267
81.1462 109.781 63.6867
87.6823 109.715 63.7155
82.1348 111.057 63.0845
81.4953 110.591 63.7904
86.8206 111.02 64.0353
87.2433 110.43 64.1571
82.1898 111.478 63.6183
82.7745 112.012 63.5224
82.6249 112.023 64.2151
86.4024 111.861 63.9739
83.4909 112.496 63.9717
84.209 112.627 64.1782
84.8969 112.625 63.9676
85.7248 112.406 64.1123
82.0113 103.099 64.6373
82.9319 102.865 64.6762
83.7503 102.676 64.5443
84.8605 102.72 64.5976
85.8505 102.869 64.4731
82.2129 103.597 65.1954
81.4818 103.743 64.6999
83.3056 103.456 65.3638
84.2258 103.281 65.255
85.3326 103.173 65.0157
86.2319 103.367 64.8496
86.8988 103.767 64.657
86.5149 103.799 65.1648
81.0489 104.417 64.998
80.4905 105.185 64.6298
86.8032 104.305 65.2053
87.4998 105.211 65.0073
80.4959 105.958 64.9461
87.6777 106.215 64.9754
80.438 106.89 65.0024
87.7967 107.388 64.67
80.487 107.759 65.1101
87.7383 108.167 64.7539
80.5079 108.582 64.9416
87.6806 109.133 64.4983
80.9374 109.369 64.9903
81.3678 110.182 64.6622
87.4028 109.931 64.5307
86.8285 110.414 64.9614
87.1957 109.537 65.2522
81.5475 110.793 64.6774
86.3897 111.185 65.0039
81.7874 111.233 64.3336
82.4706 111.664 64.7128
83.1145 112.113 64.7513
83.1988 111.727 65.2963
86.0971 111.949 64.5995
85.3968 112.174 64.9945
85.7982 111.615 65.2868
83.8713 112.339 64.9446
84.7359 112.363 64.9748
81.7445 104.201 65.3943
82.6727 104.149 65.7683
83.6484 103.872 65.7767
84.7069 103.684 65.6644
85.9359 103.868 65.5366
80.9354 105.268 65.4164
81.7231 105.217 65.8968
82.4873 104.835 66.2295
83.2367 104.471 66.2586
84.2854 104.411 66.3174
85.1649 104.275 66.1235
86.2068 104.372 65.8545
86.8699 104.844 65.6752
86.5415 105.275 66.2178
80.9367 106.128 65.6194
81.5806 106.003 66.2094
82.2189 105.599 66.4915
87.2649 105.661 65.5597
86.7799 105.985 66.2205
80.976 107.19 65.7953
81.467 106.946 66.2908
87.3679 106.391 65.7526
87.4685 107.204 65.6093
80.8574 108.023 65.6392
81.3944 107.76 66.2186
87.406 108 65.5524
86.8838 108.565 66.0081
87.0257 107.606 66.1297
80.8421 108.802 65.4581
81.3029 108.853 65.855
87.2994 108.862 65.4635
86.7564 109.432 65.8851
81.4247 109.648 65.5418
82.0429 110.527 65.5725
82.1504 109.893 66.0965
86.264 110.513 65.776
82.237 111.149 65.3199
82.6854 110.527 66.0451
83.0153 111.093 65.7268
83.593 110.463 66.3626
84.1264 111.053 65.9626
84.3455 110.327 66.4948
84.8183 110.945 66.002
85.4213 110.455 66.2759
85.7741 111.065 65.6408
84.0833 111.829 65.5202
84.8743 111.74 65.5594
82.8523 105.406 66.6753
83.8564 104.993 66.7098
84.8594 104.938 66.6653
85.7397 104.926 66.4903
82.3315 106.427 66.7216
83.0358 106.079 66.8955
83.6946 105.755 67.1974
84.3995 105.433 67.1364
85.2796 105.672 67.1236
85.9828 105.787 66.6913
85.5852 106.339 67.2093
82.1562 107.552 66.6986
82.8063 107.184 66.9122
83.4371 106.742 67.299
86.1403 106.923 66.8365
85.7392 107.269 67.149
86.8705 106.916 66.3857
82.0819 108.28 66.5915
82.8952 108.184 66.8451
83.4582 107.534 67.2924
86.3142 107.894 66.6484
85.594 108.027 67.1222
81.9303 109.219 66.3112
82.8718 108.946 66.7272
83.8523 108.334 67.2309
84.1724 108.955 66.864
84.7393 108.468 67.2141
85.291 108.871 66.8031
86.3241 108.853 66.436
82.9102 109.828 66.5598
83.7645 109.756 66.6861
84.809 109.541 66.7264
85.8316 109.633 66.4947
84.2376 106.365 67.56
84.9481 106.057 67.4768
84.1871 107.132 67.5926
84.9322 106.894 67.5729
84.1535 107.817 67.5417
84.886 107.578 67.5577
POLYGONS 796  3184
3 0 1 2
3 1 0 3
3 4 0 2
3 5 4 2
3 6 3 0
3 4 6 0
3 4 5 7
3 6 4 7
3 8 9 10
3 8 11 12
3 9 8 12
3 12 11 13
3 14 8 10
3 15 14 10
3 11 8 16
3 16 8 14
3 17 13 11
3 17 11 18
3 18 11 16
3 18 19 20
3 17 18 20
3 20 19 21
3 22 14 15
3 23 22 15
3 16 14 24
3 24 14 22
3 1 24 2
3 1 18 24
3 18 16 24
3 3 18 1
3 3 25 18
3 25 19 18
3 26 21 19
3 25 26 19
3 27 22 23
3 28 27 23
3 24 22 29
3 29 22 27
3 2 29 5
3 24 29 2
3 25 6 30
3 3 6 25
3 31 26 25
3 31 25 32
3 32 25 30
3 31 32 33
3 27 28 34
3 34 35 36
3 34 36 27
3 27 36 29
3 5 37 7
3 5 29 37
3 29 36 37
3 7 30 6
3 7 37 30
3 37 38 30
3 32 30 39
3 39 30 38
3 40 33 32
3 39 40 32
3 36 35 41
3 41 42 43
3 41 43 36
3 36 43 37
3 38 37 44
3 44 37 43
3 45 46 39
3 45 39 44
3 44 39 38
3 40 39 46
3 43 42 47
3 44 43 47
3 48 44 47
3 45 44 48
3 49 50 51
3 49 52 53
3 50 49 53
3 52 54 55
3 53 52 55
3 54 56 57
3 55 54 57
3 57 56 58
3 59 49 51
3 60 59 51
3 9 59 10
3 9 52 59
3 52 49 59
3 12 52 9
3 54 52 12
3 13 54 12
3 13 61 54
3 61 56 54
3 62 58 56
3 62 56 63
3 63 56 61
3 62 63 64
3 65 59 60
3 66 65 60
3 10 65 15
3 59 65 10
3 13 17 61
3 20 61 17
3 63 61 20
3 21 67 68
3 20 21 68
3 20 68 64
3 20 64 63
3 68 67 69
3 70 65 66
3 71 70 66
3 15 70 23
3 65 70 15
3 67 26 72
3 21 26 67
3 73 69 67
3 72 73 67
3 74 70 71
3 75 74 71
3 23 74 28
3 70 74 23
3 26 31 72
3 72 31 33
3 72 33 73
3 73 33 76
3 74 75 77
3 78 77 79
3 34 77 78
3 34 74 77
3 34 28 74
3 34 78 35
3 33 40 76
3 76 40 80
3 78 79 81
3 82 81 83
3 41 81 82
3 41 78 81
3 41 35 78
3 41 82 42
3 46 45 84
3 46 84 85
3 46 85 40
3 40 85 80
3 82 83 86
3 87 86 88
3 47 86 87
3 47 82 86
3 47 42 82
3 47 89 48
3 87 89 47
3 48 89 90
3 45 48 90
3 45 90 91
3 45 91 84
3 85 84 91
3 87 88 92
3 89 87 92
3 93 89 92
3 90 89 93
3 94 95 96
3 94 97 98
3 95 94 98
3 98 97 99
3 50 100 101
3 51 50 101
3 96 53 94
3 96 100 53
3 100 50 53
3 55 94 53
3 97 94 55
3 97 102 99
3 97 55 102
3 55 57 102
3 58 103 104
3 58 104 57
3 57 104 102
3 104 103 105
3 106 107 108
3 106 101 107
3 106 60 101
3 60 51 101
3 58 62 103
3 64 109 110
3 62 64 110
3 62 110 105
3 62 105 103
3 110 109 111
3 112 106 108
3 113 112 108
3 60 112 66
3 106 112 60
3 64 68 109
3 109 68 69
3 109 69 111
3 111 69 114
3 112 113 115
3 115 66 112
3 115 116 66
3 116 71 66
3 69 73 114
3 114 73 117
3 71 116 75
3 116 118 75
3 73 76 117
3 117 76 119
3 120 77 75
3 120 75 121
3 121 75 118
3 77 120 79
3 76 80 119
3 119 80 122
3 120 121 123
3 124 123 125
3 81 123 124
3 81 120 123
3 81 79 120
3 81 124 83
3 80 85 122
3 122 85 126
3 124 125 127
3 128 127 129
3 86 127 128
3 86 124 127
3 86 83 124
3 86 128 88
3 91 90 130
3 91 130 131
3 91 131 85
3 85 131 126
3 128 129 132
3 133 132 134
3 92 132 133
3 92 128 132
3 92 88 128
3 92 135 93
3 133 135 92
3 93 135 136
3 90 93 136
3 90 136 137
3 90 137 130
3 131 130 137
3 133 134 138
3 135 133 138
3 139 135 138
3 136 135 139
3 95 140 141
3 96 95 141
3 98 142 95
3 95 142 140
3 99 143 144
3 99 144 98
3 98 144 142
3 144 143 145
3 100 146 147
3 101 100 147
3 141 100 96
3 146 100 141
3 99 102 143
3 143 148 145
3 143 102 148
3 102 104 148
3 148 104 105
3 149 148 105
3 107 150 151
3 108 107 151
3 147 107 101
3 150 107 147
3 105 152 149
3 110 152 105
3 152 110 111
3 153 152 111
3 108 151 113
3 151 154 113
3 111 114 153
3 153 114 155
3 156 115 113
3 156 113 157
3 157 113 154
3 115 156 116
3 158 117 159
3 158 155 117
3 155 114 117
3 158 159 160
3 161 156 157
3 162 161 157
3 116 161 118
3 156 161 116
3 159 119 163
3 117 119 159
3 164 160 159
3 163 164 159
3 161 162 165
3 165 118 161
3 165 166 118
3 166 121 118
3 163 122 167
3 119 122 163
3 168 164 163
3 167 168 163
3 169 123 121
3 169 121 170
3 170 121 166
3 123 169 125
3 167 171 172
3 167 122 171
3 122 126 171
3 168 167 172
3 169 170 173
3 174 173 175
3 127 173 174
3 127 169 173
3 127 125 169
3 127 174 129
3 126 131 171
3 171 131 176
3 174 175 177
3 178 177 179
3 132 177 178
3 132 174 177
3 132 129 174
3 132 178 134
3 137 180 181
3 136 180 137
3 176 131 137
3 181 176 137
3 178 179 182
3 134 178 182
3 134 182 138
3 138 182 183
3 139 138 184
3 138 183 184
3 180 136 139
3 184 180 139
3 140 185 141
3 186 185 140
3 186 140 187
3 187 140 142
3 188 189 187
3 188 187 144
3 144 187 142
3 144 145 188
3 146 190 191
3 147 146 191
3 185 146 141
3 185 192 146
3 192 190 146
3 186 192 185
3 188 193 189
3 145 193 188
3 145 148 193
3 148 194 193
3 194 148 149
3 195 194 149
3 150 196 197
3 151 150 197
3 191 150 147
3 196 150 191
3 149 198 195
3 152 198 149
3 198 152 153
3 199 198 153
3 151 197 154
3 197 200 154
3 153 155 199
3 199 155 201
3 154 200 157
3 200 202 157
3 155 203 201
3 158 203 155
3 203 158 160
3 204 203 160
3 157 202 162
3 202 205 162
3 160 164 204
3 204 164 206
3 207 165 162
3 207 162 208
3 208 162 205
3 165 207 166
3 209 210 211
3 209 211 206
3 209 206 168
3 168 206 164
3 207 208 212
3 212 166 207
3 212 213 166
3 213 170 166
3 172 210 209
3 172 171 210
3 171 214 210
3 168 172 209
3 215 173 170
3 215 170 216
3 216 170 213
3 173 215 175
3 171 176 214
3 214 176 217
3 215 216 218
3 219 218 220
3 177 218 219
3 177 215 218
3 177 175 215
3 177 219 179
3 181 221 222
3 180 221 181
3 217 176 181
3 222 217 181
3 219 220 223
3 224 223 225
3 182 223 224
3 182 219 223
3 182 179 219
3 182 226 183
3 224 226 182
3 183 227 184
3 226 227 183
3 184 227 228
3 184 228 180
3 180 228 221
3 224 225 229
3 226 224 229
3 230 226 229
3 227 226 230
3 231 227 230
3 228 227 231
3 187 232 186
3 187 189 232
3 190 233 234
3 191 190 234
3 192 235 190
3 190 235 233
3 232 192 186
3 232 236 192
3 236 235 192
3 189 236 232
3 189 193 236
3 193 237 236
3 194 238 193
3 193 238 237
3 238 194 195
3 239 238 195
3 196 240 197
3 196 241 240
3 196 191 241
3 191 234 241
3 195 242 239
3 198 242 195
3 242 198 199
3 243 242 199
3 240 244 245
3 240 245 197
3 197 245 200
3 241 244 240
3 199 201 243
3 243 201 246
3 200 245 202
3 245 247 202
3 248 201 203
3 248 249 201
3 249 246 201
3 203 204 248
3 202 247 205
3 247 250 205
3 251 249 248
3 252 249 251
3 204 206 251
3 248 204 251
3 205 250 208
3 250 253 208
3 211 252 251
3 211 210 252
3 210 254 252
3 206 211 251
3 255 212 208
3 255 208 256
3 256 208 253
3 212 255 213
3 210 214 254
3 254 214 257
3 255 256 258
3 258 213 255
3 258 259 213
3 259 216 213
3 214 217 257
3 257 217 260
3 261 218 216
3 261 216 262
3 262 216 259
3 218 261 220
3 222 263 264
3 221 263 222
3 260 217 222
3 264 260 222
3 261 262 265
3 266 265 267
3 223 265 266
3 223 261 265
3 223 220 261
3 223 266 225
3 221 228 263
3 263 228 268
3 266 267 269
3 225 266 269
3 225 269 229
3 229 269 270
3 230 229 271
3 229 270 271
3 231 230 272
3 230 271 272
3 268 228 231
3 272 268 231
3 233 273 234
3 233 235 274
3 273 233 274
3 235 236 275
3 274 235 275
3 236 237 276
3 275 236 276
3 237 238 277
3 276 237 277
3 238 239 277
3 273 278 279
3 273 279 234
3 234 279 241
3 274 278 273
3 280 278 274
3 275 280 274
3 281 280 275
3 276 281 275
3 282 281 276
3 277 282 276
3 283 282 277
3 284 285 283
3 242 284 283
3 242 283 277
3 242 277 239
3 242 243 284
3 244 286 287
3 245 244 287
3 279 244 241
3 286 244 279
3 284 288 285
3 288 284 243
3 288 243 289
3 289 243 246
3 245 287 247
3 287 290 247
3 246 249 289
3 289 249 291
3 247 290 250
3 290 292 250
3 249 252 291
3 291 252 293
3 250 292 253
3 292 294 253
3 252 254 293
3 293 254 295
3 253 294 256
3 294 296 256
3 254 257 295
3 295 257 297
3 256 296 298
3 258 256 298
3 298 259 258
3 299 259 298
3 300 301 302
3 300 302 297
3 300 297 260
3 260 297 257
3 259 299 262
3 299 303 262
3 264 301 300
3 264 263 301
3 263 304 301
3 260 264 300
3 262 303 305
3 265 262 305
3 267 306 307
3 267 265 306
3 265 305 306
3 306 308 307
3 309 310 311
3 309 311 304
3 309 304 268
3 268 304 263
3 267 307 269
3 307 308 312
3 307 312 269
3 269 312 270
3 271 270 313
3 270 312 313
3 310 309 272
3 310 272 313
3 313 272 271
3 268 272 309
3 278 314 279
3 278 280 315
3 314 278 315
3 280 281 316
3 315 280 316
3 281 282 317
3 316 281 317
3 282 283 318
3 317 282 318
3 283 285 318
3 286 319 287
3 286 279 314
3 286 314 319
3 319 314 320
3 321 315 322
3 321 320 315
3 320 314 315
3 316 322 315
3 323 322 316
3 317 323 316
3 324 323 317
3 318 324 317
3 325 324 318
3 326 327 325
3 288 326 325
3 288 325 318
3 288 318 285
3 288 289 326
3 319 328 290
3 287 319 290
3 329 320 330
3 329 328 320
3 328 319 320
3 321 330 320
3 331 327 326
3 332 327 331
3 289 291 331
3 326 289 331
3 328 333 292
3 290 328 292
3 334 328 329
3 333 328 334
3 331 335 332
3 335 331 291
3 335 291 336
3 336 291 293
3 333 337 294
3 292 333 294
3 338 333 334
3 337 333 338
3 339 340 341
3 339 341 336
3 339 336 295
3 295 336 293
3 337 342 296
3 294 337 296
3 343 337 338
3 342 337 343
3 344 340 339
3 345 340 344
3 295 297 344
3 339 295 344
3 296 342 298
3 299 346 347
3 298 346 299
3 298 343 346
3 298 342 343
3 346 348 347
3 302 345 344
3 302 301 345
3 301 349 345
3 297 302 344
3 347 350 303
3 299 347 303
3 351 347 348
3 351 352 347
3 352 350 347
3 352 353 354
3 351 353 352
3 354 355 356
3 353 355 354
3 356 357 358
3 355 357 356
3 358 357 349
3 358 349 304
3 304 349 301
3 303 350 305
3 306 305 350
3 352 306 350
3 308 306 352
3 308 352 359
3 359 352 354
3 356 360 354
3 360 359 354
3 311 310 360
3 311 360 358
3 358 360 356
3 304 311 358
3 308 359 312
3 313 312 359
3 360 313 359
3 310 313 360
3 322 361 321
3 322 323 362
3 361 322 362
3 323 324 363
3 362 323 363
3 324 325 364
3 363 324 364
3 325 327 364
3 330 365 329
3 330 321 361
3 330 361 365
3 365 361 366
3 367 362 368
3 367 366 362
3 366 361 362
3 363 368 362
3 369 368 363
3 369 370 371
3 369 363 370
3 363 364 370
3 327 332 370
3 364 327 370
3 365 372 334
3 329 365 334
3 366 373 365
3 373 372 365
3 374 366 367
3 373 366 374
3 375 371 370
3 376 371 375
3 332 335 377
3 332 377 370
3 370 377 375
3 335 336 377
3 372 378 338
3 334 372 338
3 373 379 372
3 379 378 372
3 380 373 374
3 379 373 380
3 381 376 375
3 382 376 381
3 341 340 381
3 341 381 377
3 377 381 375
3 336 341 377
3 378 383 343
3 338 378 343
3 379 384 378
3 384 383 378
3 385 379 380
3 385 386 379
3 386 384 379
3 386 387 388
3 385 387 386
3 382 388 387
3 382 381 388
3 381 389 388
3 340 345 389
3 381 340 389
3 343 383 346
3 348 346 383
3 348 383 390
3 390 383 384
3 386 391 384
3 391 390 384
3 388 392 386
3 392 391 386
3 389 393 388
3 393 392 388
3 345 349 393
3 389 345 393
3 348 390 351
3 353 351 390
3 391 353 390
3 355 353 391
3 392 355 391
3 357 355 392
3 393 357 392
3 349 357 393
3 368 394 367
3 368 369 395
3 394 368 395
3 369 371 395
3 394 396 374
3 367 394 374
3 395 397 394
3 397 396 394
3 371 376 397
3 395 371 397
3 396 398 380
3 374 396 380
3 397 399 396
3 399 398 396
3 376 382 399
3 397 376 399
3 380 398 385
3 387 385 398
3 399 387 398
3 382 387 399
POINT_DATA 400
SCALARS Scalars float
LOOKUP_TABLE default
0.5
0.5
0.5
0.5
0.5
0.5
0.5
0.5
0.5
0.5
0.5
0.5
0.5
0.5
0.5
0.5
0.5
0.5
0.5
0.5
0.5
0.5
0.5
0.5
0.5
0.5
0.5
0.5
0.5
0.5
0.5
0.5
0.5
0.5
0.5
0.5
0.5
0.5
0.5
0.5
0.5
0.5
0.5
0.5
0.5
0.5
0.5
0.5
0.5
0.5
0.5
0.5
0.5
0.5
0.5
0.5
0.5
0.5
0.5
0.5
0.5
0.5
0.5
0.5
0.5
0.5
0.5
0.5
0.5
0.5
0.5
0.5
0.5
0.5
0.5
0.5
0.5
0.5
0.5
0.5
0.5
0.5
0.5
0.5
0.5
0.5
0.5
0.5
0.5
0.5
0.5
0.5
0.5
0.5
0.5
0.5
0.5
0.5
0.5
0.5
0.5
0.5
0.5
0.5
0.5
0.5
0.5
0.5
0.5
0.5
0.5
0.5
0.5
0.5
0.5
0.5
0.5
0.5
0.5
0.5
0.5
0.5
0.5
0.5
0.5
0.5
0.5
0.5
0.5
0.5
0.5
0.5
0.5
0.5
0.5
0.5
0.5
0.5
0.5
0.5
0.5
0.5
0.5
0.5
0.5
0.5
0.5
0.5
0.5
0.5
0.5
0.5
0.5
0.5
0.5
0.5
0.5
0.5
0.5
0.5
0.5
0.5
0.5
0.5
0.5
0.5
0.5
0.5
0.5
0.5
0.5
0.5
0.5
0.5
0.5
0.5
0.5
0.5
0.5
0.5
0.5
0.5
0.5
0.5
0.5
0.5
0.5
0.5
0.5
0.5
0.5
0.5
0.5
0.5
0.5
0.5
0.5
0.5
0.5
0.5
0.5
0.5
0.5
0.5
0.5
0.5
0.5
0.5
0.5
0.5
0.5
0.5
0.5
0.5
0.5
0.5
0.5
0.5
0.5
0.5
0.5
0.5
0.5
0.5
0.5
0.5
0.5
0.5
0.5
0.5
0.5
0.5
0.5
0.5
0.5
0.5
0.5
0.5
0.5
0.5
0.5
0.5
0.5
0.5
0.5
0.5
0.5
0.5
0.5
0.5
0.5
0.5
0.5
0.5
0.5
0.5
0.5
0.5
0.5
0.5
0.5
0.5
0.5
0.5
0.5
0.5
0.5
0.5
0.5
0.5
0.5
0.5
0.5
0.5
0.5
0.5
0.5
0.5
0.5
0.5
0.5
0.5
0.5
0.5
0.5
0.5
0.5
0.5
0.5
0.5
0.5
0.5
0.5
0.5
0.5
0.5
0.5
0.5
0.5
0.5
0.5
0.5
0.5
0.5
0.5
0.5
0.5
0.5
0.5
0.5
0.5
0.5
0.5
0.5
0.5
0.5
0.5
0.5
0.5
0.5
0.5
0.5
0.5
0.5
0.5
0.5
0.5
0.5
0.5
0.5
0.5
0.5
0.5
0.5
0.5
0.5
0.5
0.5
0.5
0.5
0.5
0.5
0.5
0.5
0.5
0.5
0.5
0.5
0.5
0.5
0.5
0.5
0.5
0.5
0.5
0.5
0.5
0.5
0.5
0.5
0.5
0.5
0.5
0.5
0.5
0.5
0.5
0.5
0.5
0.5
0.5
0.5
0.5
0.5
0.5
0.5
0.5
0.5
0.5
0.5
0.5
0.5
0.5
0.5
0.5
0.5
0.5
0.5
0.5
0.5
0.5
0.5
0.5
0.5
0.5
0.5
0.5
0.5
0.5
0.5
