# vtk DataFile Version 3.0
this file was written using fslvtkio
ASCII
DATASET POLYDATA
POINTS 846 float
72.137 93.6606 69.9274
71.2063 92.0863 71.8172
70.8857 93.182 70.4988
73.6724 93.5772 69.808
72.665 92.1873 71.0567
75.006 93.7499 69.7556
74.078 92.292 70.7714
75.4913 92.4737 70.7997
70.7912 94.7978 69.7701
69.6324 93.7238 70.7837
68.9103 94.9745 70.929
72.0146 95.2984 69.3427
73.3838 95.3819 69.1779
75.088 95.4307 69.1957
76.4156 93.6406 70.1212
76.4685 95.22 69.4992
78.0484 95.1075 70.0298
78.0105 93.5229 70.8386
79.0444 94.4763 70.915
69.8784 96.0416 70.0325
68.5242 96.3888 71.413
71.4675 96.945 69.3069
73.0832 97.3198 68.9693
74.8254 97.079 68.9123
76.4114 96.931 69.1007
77.8228 96.7757 69.5077
79.1573 96.0372 70.3979
69.9452 97.2246 70.2425
71.2837 98.2658 69.6294
71.9717 99.8858 69.4428
72.9343 98.7843 68.981
74.8484 98.8454 68.8091
76.3592 98.7027 68.9118
78.0294 98.516 69.3058
79.5326 97.8376 70.2211
73.4823 100.906 69.0057
72.114 101.356 69.5646
75.0007 100.619 68.7655
76.67 100.538 68.8043
78.2501 100.321 69.0706
79.6307 99.2353 69.9801
73.5311 102.475 69.1682
71.9871 102.924 69.9025
75.1336 102.455 68.842
76.6983 102.229 68.7242
78.3374 102.267 68.8469
79.9128 100.415 69.7477
79.7725 102.169 69.1108
81.1463 101.204 70.0433
73.3786 104.176 69.5765
71.9504 103.914 70.0969
75.2093 104.22 69.0535
76.8167 104.223 68.8358
78.3417 104.261 68.7565
79.8988 103.975 68.8702
81.5322 102.469 69.7479
81.5677 104.144 69.2056
82.8286 102.757 70.2859
72.469 104.816 70.2955
73.4281 105.852 70.1291
74.6091 105.681 69.6145
76.4256 105.763 69.0982
78.22 105.809 68.8607
79.8007 105.943 68.7783
81.515 105.837 68.9503
83.0571 104.262 69.7973
83.0221 105.652 69.347
84.3965 104.578 70.4356
74.1927 107.099 70.49
76.1008 107.25 69.656
77.039 108.439 69.6554
78.1719 107.568 69.0002
79.7933 107.831 68.842
81.6731 107.855 68.8257
83.1777 107.482 69.1084
84.825 105.864 70.1712
84.7624 107.447 69.6937
86.0018 106.425 70.8714
78.4391 109.161 69.3413
78.7924 110.621 69.6345
79.9963 109.493 68.9256
81.7175 109.639 68.842
83.3524 109.405 68.9756
84.712 108.967 69.351
86.3783 108.374 70.4306
80.294 111.418 69.2636
80.9599 113.058 69.3608
81.8791 111.835 68.8881
83.5778 111.454 68.9586
85.1268 111.149 69.2965
86.2729 109.788 70.0878
82.3503 113.897 69.0406
80.92 114.973 69.6383
83.4358 113.269 68.9634
85.236 112.972 69.2385
86.5678 111.564 70.0039
86.5599 112.978 69.8611
87.869 112.411 71.1653
82.6993 115.962 69.1738
81.0751 116.55 69.776
83.9638 115.466 69.0692
85.4433 114.953 69.3031
86.9167 114.949 69.9481
87.9577 113.937 71.058
82.661 117.713 69.3902
81.1527 118.411 70.1048
84.1575 117.228 69.1989
85.4183 116.869 69.3289
86.8319 116.758 69.9271
87.9939 115.786 71.0801
82.2033 119.297 69.8652
80.7608 120.175 70.9411
84.2605 118.969 69.4923
85.9227 118.85 69.7607
87.2964 118.509 70.5407
87.9833 117.428 71.1364
82.1554 120.827 70.2778
81.3717 121.945 71.4444
83.8261 120.375 69.7735
85.4423 120.303 70.0026
86.9736 120.503 71.1216
82.5784 122.396 70.8617
83.4714 123.433 71.5626
83.9772 121.762 70.244
85.1614 122.185 70.6158
86.3636 121.727 70.9879
84.6336 123.635 71.9206
69.8612 92.5716 71.8936
69.9028 92.1295 73.4186
68.6911 93.5075 72.3374
71.1092 91.5563 73.4605
72.5714 91.3906 72.6375
73.8728 91.3555 72.3861
76.7316 92.4249 71.2222
75.4919 91.4377 72.2723
77.6942 92.4424 71.4275
77.0896 91.629 72.4666
78.4572 92.5228 72.0728
68.052 95.0028 72.4984
80.0622 95.1585 71.3999
79.6028 93.2675 72.2902
80.879 94.4473 72.5866
67.8928 96.8507 72.7357
80.4491 97.0865 71.0325
81.2364 95.9136 72.2357
69.0844 97.8697 71.2445
70.1634 99.1474 70.559
69.0592 99.622 71.7479
81.1857 98.5995 71.1252
81.6518 97.4349 72.0471
70.4589 100.549 70.5582
69.5507 101.213 71.5792
81.373 99.9709 70.6568
82.6863 98.4647 72.6408
83.1319 99.9258 71.9696
83.6578 99.3213 72.998
70.7806 102.105 70.6104
69.5195 102.813 72.2198
82.8182 101.202 70.9549
84.4119 100.354 73.1907
84.2734 101.355 72.0099
85.2245 101.373 73.0751
70.7717 103.504 71.0415
69.7345 104.384 72.7872
84.0918 102.745 71.0363
85.5041 102.37 72.5153
85.6489 103.431 71.9802
86.5398 103.631 73.2264
70.9912 105.073 71.6499
72.545 106.198 70.9933
71.5296 106.208 71.7994
85.6891 104.896 71.2533
86.7022 105.094 72.4229
72.4969 107.297 71.8354
73.8693 108.28 71.2179
72.8878 108.404 72.0788
75.5849 108.598 70.3611
87.053 106.807 71.8785
73.6391 109.478 72.112
74.642 111.16 71.957
75.5017 110.069 70.9708
77.013 110.138 70.2479
87.405 108.388 71.6245
87.4933 109.695 71.2905
88.4793 109.561 72.9563
76.2176 111.827 71.0915
75.1392 112.78 72.2051
77.4525 111.665 70.4513
78.9977 111.966 69.9131
87.5662 110.927 71.036
88.6292 111.232 72.7052
76.5404 113.32 71.4712
76.8605 114.68 71.8474
78.1434 113.491 70.6153
79.4743 113.654 70.0845
88.7761 112.837 72.7133
78.1212 115.101 71.1819
78.2697 116.509 71.6634
79.6004 115.415 70.3963
88.7963 114.661 72.7034
79.78 117.084 70.6736
78.5666 117.968 71.8832
88.8695 116.102 72.9219
79.9592 118.773 70.9746
78.8319 119.283 72.0796
88.1514 119.031 71.8672
88.7827 117.697 72.9071
79.5254 120.448 72.058
80.5524 122.08 72.4197
88.0622 120.311 72.1937
88.6535 119.511 73.298
82.2417 123.37 72.0346
81.5306 123.488 73.0207
85.9865 122.888 71.6568
87.1427 122.033 72.2944
87.9351 121.309 73.0464
83.3273 124.295 73.2334
84.797 124.297 73.4218
85.9751 123.61 72.9614
69.4831 92.4285 75.2175
68.4896 93.4312 73.8369
70.8403 91.6104 75.2645
72.4489 91.1156 74.5128
73.8226 90.9676 74.1163
75.4993 91.0158 73.8396
76.8441 91.1614 73.7881
79.3292 92.3363 73.0065
78.4896 91.689 73.5307
79.8584 92.2263 74.2573
67.7492 95.2072 73.7618
81.8678 94.888 73.5989
80.9118 93.2758 73.879
81.9864 94.0218 74.8711
67.4574 96.6424 74.2008
82.2741 96.1562 73.4173
82.7837 95.4361 75.134
68.3139 98.3363 72.4779
67.4431 98.185 74.3317
82.6232 97.3725 73.1702
83.2638 97.1709 74.413
68.2657 99.5232 73.0505
68.6873 101.248 72.9933
84.4427 99.3971 74.1183
83.6854 98.3698 74.0194
85.1472 99.7651 75.4362
68.8218 102.998 73.625
86.1165 102.149 73.6598
85.6787 101.009 74.5986
86.5531 102.344 74.778
69.016 104.503 74.2552
87.2232 103.889 75.0253
70.7246 106.132 72.757
69.7901 105.822 73.8598
87.589 105.197 74.0228
87.8632 106.503 73.3713
88.4075 106.603 74.7599
70.9576 107.365 73.5439
72.1218 108.549 72.9801
70.9809 108.735 74.6765
88.1991 108.096 73.0811
88.7216 108.072 74.5405
72.5383 109.825 73.3553
73.4944 111.082 72.9208
72.7191 111.651 74.0699
89.0098 109.96 74.5049
74.0607 112.926 73.1854
73.0583 113.45 74.6632
89.0854 111.766 74.1782
74.1729 114.559 73.9305
73.4002 114.961 75.2701
75.3493 114.239 72.7212
89.1817 113.595 74.1984
74.3991 115.626 74.3582
75.164 116.549 74.1375
75.772 115.971 73.1835
77.034 115.996 72.3106
89.2071 115.103 74.3016
76.0846 117.454 73.9416
76.5022 119.176 74.7778
77.2306 117.529 72.9217
89.1774 116.946 74.3906
77.708 119.066 73.1385
77.1239 120.546 74.9791
89.0161 118.628 74.422
78.227 120.414 73.3364
79.2597 121.432 72.9551
78.65 121.664 73.7983
88.6957 120.401 74.7112
79.4532 122.617 74.0004
80.7585 123.685 74.2115
87.1771 122.924 73.9583
88.0443 122.062 74.8563
81.9353 124.454 74.5394
84.1577 124.726 74.8829
85.7894 124.212 74.7293
68.4143 93.7844 75.2653
69.4021 93.0402 76.71
70.5435 92.1358 76.7716
72.3795 91.2574 76.2467
73.7976 91.0013 75.9154
75.4779 90.9211 75.5852
76.8919 91.0414 75.3445
78.6699 91.488 74.8926
80.0535 92.0012 75.8241
67.8396 94.9779 75.5841
68.544 94.3306 77.0745
81.273 92.9918 75.8159
82.4301 94.2283 76.5717
68.0022 95.4411 77.3546
67.3972 96.5068 75.6906
83.2691 95.6941 76.5979
67.2492 97.9239 75.8923
83.9838 97.0703 76.1257
84.4761 98.2765 75.5651
84.9248 98.4255 77.1046
67.8273 99.8536 74.2223
67.3111 99.4922 75.4918
85.504 99.7929 77.2396
68.0315 101.324 74.4714
67.4358 101.497 76.0143
86.093 101 76.1548
86.9855 102.695 76.3931
68.1444 102.94 74.9756
67.6094 103.027 76.6511
87.5016 103.915 76.9201
68.2959 104.352 75.75
69.0665 105.881 75.8685
88.0083 105.13 75.8429
88.7084 106.864 76.2813
70.0997 107.242 74.9349
70.3938 108.56 76.0176
89.0516 108.735 75.9243
71.6672 110.247 74.7779
70.9805 110.359 76.2476
89.2565 110.483 76.0637
71.8057 111.743 75.5673
71.2002 111.737 77.1688
89.3528 112.417 75.8849
72.1596 113.138 76.0155
72.6066 114.547 76.4113
89.4087 113.861 76.0187
74.1661 116.441 75.3745
73.2876 116.538 77.0522
89.3943 115.579 76.0706
74.4208 117.366 75.9081
75.5324 118.384 75.2698
74.7443 118.296 76.224
89.3238 117.304 76.2614
75.4558 119.307 76.3378
76.3181 120.513 76.3471
89.1243 119.023 76.215
78.0326 121.687 74.7183
77.265 122.035 76.4642
88.8162 120.49 76.3623
78.513 122.795 75.3737
79.7268 123.615 75.0282
79.6153 124.198 76.2895
87.0157 123.425 75.5166
88.0522 122.284 76.3927
80.9886 124.635 75.8914
82.7101 125.078 75.9238
83.6995 125.353 75.5357
83.4355 125.488 76.3093
84.6906 125.121 75.8668
85.5536 124.525 76.1508
84.1883 125.681 76.1845
70.0871 93.0528 77.916
71.5886 92.5782 78.8471
72.2861 91.6702 77.6508
73.835 91.2642 77.3605
75.4013 91.1519 77.2023
76.8178 91.1419 76.8767
78.4836 91.3831 76.3321
79.9207 92.0209 77.3029
70.6188 93.3496 79.1265
69.2315 94.3574 78.6929
81.3226 93.0126 77.4266
82.6512 94.4926 77.9883
68.393 95.7339 78.8572
67.4303 97.0181 77.7518
83.5488 95.6237 78.1619
84.2526 96.8989 77.4352
84.3137 96.9889 79.0442
67.1922 98.5276 77.3587
85.089 98.641 78.7318
67.1664 100.023 77.1989
85.7281 100.241 79.2009
67.2482 101.722 77.4734
86.4774 101.445 77.7398
87.074 102.764 78.3427
67.4922 103.2 78.0735
87.745 104.444 78.8664
68.251 104.892 77.1582
68.816 106.092 77.8009
88.302 105.51 77.3941
88.8327 107.156 77.7281
69.5684 107.266 76.7365
70.2029 108.969 77.8147
89.1804 109.118 77.4697
70.5805 110.186 78.0602
89.3413 110.798 77.4517
70.7503 111.278 79.0295
89.4244 112.6 77.4768
71.6315 113.268 77.4693
71.1503 112.929 79.2716
89.4513 114.307 77.6357
71.8676 114.336 78.0853
72.5027 115.688 78.3093
89.4253 115.746 77.748
73.9976 118.007 77.3119
73.2009 117.388 78.6419
89.3082 117.532 77.833
74.2538 119.055 78.2749
75.1847 120.092 77.7296
74.5636 120.105 79.4749
89.1291 119.018 77.8092
75.8657 121.16 78.0174
76.7607 122.237 78.0544
[...]
POINT_DATA 846
SCALARS Scalars float
LOOKUP_TABLE default
50
50
50
50
50
50
50
50
50
50
50
50
50
50
50
50
50
50
50
50
50
50
50
50
50
50
50
50
50
50
50
50
50
50
50
50
50
50
50
50
50
50
50
50
50
50
50
50
50
50
50
50
50
50
50
50
50
50
50
50
50
50
50
50
50
50
50
50
50
50
50
50
50
50
50
50
50
50
50
50
50
50
50
50
50
50
50
50
50
50
50
50
50
50
50
50
50
50
50
50
50
50
50
50
50
50
50
50
50
50
50
50
50
50
50
50
50
50
50
50
50
50
50
50
50
50
50
50
50
50
50
50
50
50
50
50
50
50
50
50
50
50
50
50
50
50
50
50
50
50
50
50
50
50
50
50
50
50
50
50
50
50
50
50
50
50
50
50
50
50
50
50
50
50
50
50
50
50
50
50
50
50
50
50
50
50
50
50
50
50
50
50
50
50
50
50
50
50
50
50
50
50
50
50
50
50
50
50
50
50
50
50
50
50
50
50
50
50
50
50
50
50
50
50
50
50
50
50
50
50
50
50
50
50
50
50
50
50
50
50
50
50
50
50
50
50
50
50
50
50
50
50
50
50
50
50
50
50
50
50
50
50
50
50
50
50
50
50
50
50
50
50
50
50
50
50
50
50
50
50
50
50
50
50
50
50
50
50
50
50
50
50
50
50
50
50
50
50
50
50
50
50
50
50
50
50
50
50
50
50
50
50
50
50
50
50
50
50
50
50
50
50
50
50
50
50
50
50
50
50
50
50
50
50
50
50
50
50
50
50
50
50
50
50
50
50
50
50
50
50
50
50
50
50
50
50
50
50
50
50
50
50
50
50
50
50
50
50
50
50
50
50
50
50
50
50
50
50
50
50
50
50
50
50
50
50
50
50
50
50
50
50
50
50
50
50
50
50
50
50
50
50
50
50
50
50
50
50
50
50
50
50
50
50
50
50
50
50
50
50
50
50
50
50
50
50
50
50
50
50
50
50
50
50
50
50
50
50
50
50
50
50
50
50
50
50
50
50
50
50
50
50
50
50
50
50
50
50
50
50
50
50
50
50
50
50
50
50
50
50
50
50
50
50
50
50
50
50
50
50
50
50
50
50
50
50
50
50
50
50
50
50
50
50
50
50
50
50
50
50
50
50
50
50
50
50
50
50
50
50
50
50
50
50
50
50
50
50
50
50
50
50
50
50
50
50
50
50
50
50
50
50
50
50
50
50
50
50
50
50
50
50
50
50
50
50
50
50
50
50
50
50
50
50
50
50
50
50
50
50
50
50
50
50
50
50
50
50
50
50
50
50
50
50
50
50
50
50
50
50
50
50
50
50
50
50
50
50
50
50
50
50
50
50
50
50
50
50
50
50
50
50
50
50
50
50
50
50
50
50
50
50
50
50
50
50
50
50
50
50
50
50
50
50
50
50
50
50
50
50
50
50
50
50
50
50
50
50
50
50
50
50
50
50
50
50
50
50
50
50
50
50
50
50
50
50
50
50
50
50
50
50
50
50
50
50
50
50
50
50
50
50
50
50
50
50
50
50
50
50
50
50
50
50
50
50
50
50
50
50
50
50
50
50
50
50
50
50
50
50
50
50
50
50
50
50
50
50
50
50
50
50
50
50
50
50
50
50
50
50
50
50
50
50
50
50
50
50
50
50
50
50
50
50
50
50
50
50
50
50
50
50
50
50
50
50
50
50
50
50
50
50
50
50
50
50
50
50
50
50
50
50
50
50
50
50
50
50
50
50
50
50
50
50
50
50
50
50
50
50
50
50
50
50
50
50
50
50
50
50
50
50
50
50
50
50
50
50
50
50
50
50
50
50
50
50
50
50
50
50
50
50
50
50
50
50
50
50
50
50
50
50
50
50
50
50
50
50
50
50
50
50
50
50
50
50
50
50
50
50
50
50
50
50
50
50
