# vtk DataFile Version 3.0
this file was written using fslvtkio
ASCII
DATASET POLYDATA
POINTS 684 float
81.3896 113.306 62.3984
81.2574 113.144 62.5477
81.1582 113.388 62.2697
81.5488 113.332 62.6004
81.4141 113.571 62.4242
81.8217 114.99 62.0925
81.5219 114.746 62.2045
81.495 115.169 62.1906
82.1297 114.987 62.1821
81.8871 114.624 62.3034
82.3382 114.832 62.5469
81.9247 115.304 62.2471
82.2965 115.215 62.4811
80.3086 112.505 62.6683
79.953 112.086 62.9148
79.8051 112.377 62.7041
80.407 112.234 62.9739
79.9153 112.83 62.556
79.5335 112.681 62.684
79.4982 113.066 62.6217
80.2526 113.034 62.5301
80.6319 112.523 62.9301
80.6184 112.788 62.6348
81.01 112.897 62.6359
81.0062 112.649 62.8678
81.3344 112.791 63.0452
79.8933 113.218 62.5806
80.2143 113.393 62.5237
80.235 113.813 62.5535
80.7529 113.46 62.375
81.6953 113.604 62.7214
81.6566 113.236 62.8955
81.8795 113.476 63.1745
80.7138 113.984 62.4837
80.1523 114.233 62.6158
81.1228 113.85 62.4558
81.6502 114.102 62.5337
82.0867 113.673 62.9028
82.0915 114.02 62.6362
82.3624 114.067 62.9741
80.5874 114.656 62.5027
80.1114 114.665 62.5834
80.9899 114.358 62.4658
81.4923 114.45 62.4854
81.912 114.388 62.5382
82.3309 114.368 62.7583
80.3446 115.058 62.5285
79.8247 114.836 62.6805
79.8279 115.164 62.7003
80.7275 115.13 62.494
81.1704 115.016 62.3464
82.4477 114.792 62.9776
80.1609 115.461 62.6254
80.2361 115.759 62.6933
80.6355 115.558 62.5204
81.1498 115.503 62.4644
81.5505 115.465 62.4636
82.133 115.565 62.6171
82.3981 115.34 62.8799
80.5663 115.993 62.6379
80.568 116.342 62.7473
80.9801 116.121 62.5259
81.5007 115.962 62.5087
82.027 115.963 62.5771
82.3862 115.749 62.8653
80.9395 116.563 62.5663
80.4843 116.808 62.8978
81.3591 116.451 62.5364
82.0004 116.435 62.6125
82.3342 116.31 62.8146
80.7982 117.074 62.6739
80.5392 117.089 62.9069
81.297 116.919 62.551
81.8712 116.912 62.5797
82.368 116.814 62.7826
80.694 117.343 62.9286
80.9836 117.56 62.9075
81.0682 117.354 62.6808
81.5768 117.451 62.6401
82.229 117.17 62.5705
81.9174 117.399 62.5635
82.2161 117.388 62.5359
81.3699 117.8 62.8926
81.8586 117.739 62.7576
82.1488 117.598 62.5854
78.7272 111.44 63.0995
78.5363 111.152 63.3395
78.3525 111.513 63.1541
79.1425 111.386 63.1228
78.9942 111.104 63.3748
79.5229 111.341 63.1521
79.3182 111.132 63.3763
79.7705 111.216 63.5981
78.6699 111.932 63.0251
78.2634 111.979 63.1348
78.9966 111.908 63.0184
79.3717 111.788 63.0255
79.8802 111.477 63.306
79.716 111.836 63.0301
80.1263 111.772 63.181
78.548 112.232 63.0458
78.5922 112.586 63.0598
78.9114 112.364 62.9972
79.4751 112.26 62.9792
80.646 112.215 63.1863
80.3726 111.954 63.344
80.7179 112.129 63.4189
78.6967 112.981 63.0308
78.3234 112.73 63.144
78.2388 112.989 63.1612
79.1704 112.969 62.8464
80.9214 112.432 63.4201
81.3363 112.722 63.4807
78.2468 113.261 63.2906
78.5155 113.749 63.2496
78.9616 113.398 62.988
79.3969 113.407 62.7984
79.9129 113.591 62.6535
81.6539 113.086 63.5038
81.8616 113.356 63.6806
78.9608 114.015 63.0288
78.5515 114.239 63.2744
79.3174 113.958 62.9176
79.8121 113.971 62.7333
82.1996 113.783 63.2538
81.9915 113.889 63.6899
78.9191 114.595 63.1052
78.6176 114.566 63.2627
79.269 114.337 62.9901
79.7308 114.371 62.8142
82.2966 114.085 63.4287
82.4435 114.548 63.3274
78.7491 114.892 63.3779
78.9596 115.25 63.4301
79.2802 114.95 63.0889
82.4466 115.003 63.3851
79.3449 115.503 63.13
79.1388 115.846 63.4867
79.8482 115.603 62.9084
82.4505 115.555 63.3728
79.4166 115.969 63.3065
79.5663 116.206 63.327
79.7998 116.055 63.0807
80.1444 116.047 62.9082
82.4331 115.995 63.3513
79.7726 116.522 63.4648
79.9952 116.955 63.6212
80.1473 116.625 63.1662
82.4613 116.509 63.306
80.2197 117.08 63.2419
80.1337 117.467 63.7501
82.4783 116.931 63.343
80.5004 117.521 63.3245
80.8304 117.705 63.1355
80.6543 117.788 63.3443
82.4689 117.517 62.7093
82.6167 117.41 63.1162
80.9192 117.978 63.4702
81.3949 118.173 63.2426
81.1918 118.33 63.5466
81.7673 118.11 63.1374
82.3458 117.779 63.1546
81.6049 118.346 63.4813
82.0709 118.281 63.4394
77.9105 110.881 63.6548
77.6718 110.748 63.9707
77.6754 111.116 63.7076
78.3581 110.808 63.6463
78.1057 110.597 63.9283
78.4677 110.606 63.9527
78.0948 111.314 63.4454
77.6322 111.635 63.6383
78.8286 110.882 63.8607
79.2191 111.019 63.8583
79.6833 111.151 64.0262
78.0223 111.88 63.3738
77.568 112.061 63.679
80.1087 111.563 63.5751
79.9925 111.544 64.0028
77.9228 112.318 63.4619
77.6305 112.579 63.661
78.1918 112.326 63.2209
80.2523 111.839 63.9113
80.6478 112.163 63.6971
80.4059 112.126 64.1502
78.0154 112.902 63.4439
77.6682 112.939 63.6343
80.768 112.4 63.9098
81.1063 112.624 63.837
80.9836 112.691 64.2097
77.8009 113.264 63.6416
78.1352 113.573 63.4809
77.9 113.83 63.7416
81.3727 112.922 63.9394
81.682 113.151 63.9944
81.8953 113.559 64.0929
78.2321 114.052 63.524
78.0091 114.269 63.7648
81.9468 114.018 64.1121
78.3016 114.482 63.5584
78.0266 114.552 63.8027
82.2908 114.336 63.6846
81.9904 114.463 64.0719
78.1605 114.85 63.8441
78.568 115.144 63.6875
78.3968 115.134 63.8776
82.3484 114.782 63.7226
82.0141 114.917 64.1522
78.5584 115.394 63.9049
78.837 115.783 63.8795
82.3214 115.29 63.8143
82.0106 115.465 64.2772
79.3229 116.189 63.5684
79.0715 116.119 63.7882
82.3638 115.755 63.7713
82.1395 115.974 64.1134
79.2902 116.495 63.9496
79.5812 116.725 63.8167
79.4236 116.789 64.0644
82.3928 116.156 63.7294
82.1138 116.382 64.1525
79.625 117.018 64.1586
80.0052 117.427 64.1928
82.4169 116.638 63.6871
82.2157 116.876 64.0388
80.498 117.839 63.6546
80.2293 117.778 64.1497
82.4244 117.031 63.7539
82.4521 117.472 63.5129
80.6178 118.051 63.9022
80.9067 118.281 63.7767
80.9142 118.33 64.2839
82.4073 117.869 63.5682
82.1326 118.066 63.922
82.3349 117.728 63.9648
81.3047 118.415 63.946
81.7871 118.26 64.0233
77.3373 111.029 64.0461
77.2972 110.619 64.4552
77.0833 110.966 64.2452
77.8716 110.573 64.3749
78.2269 110.569 64.2951
78.2322 110.639 64.6151
77.0453 111.324 64.0763
76.8909 111.081 64.2839
76.6891 111.26 64.3564
77.3717 111.388 63.9169
78.6271 110.776 64.3356
78.9837 111.006 64.2978
79.3362 111.067 64.2301
79.2487 111.07 64.4936
76.6697 111.665 64.2984
76.967 112.156 64.2139
77.2426 111.855 63.9464
79.4559 111.266 64.5384
79.8294 111.466 64.3366
77.3479 112.288 63.9205
77.0682 112.544 64.1656
80.0316 111.865 64.3585
80.3355 112.13 64.4643
77.4537 112.846 63.9022
77.1349 112.925 64.1441
80.5299 112.431 64.4773
80.9022 112.681 64.4941
77.1813 113.258 64.2035
77.537 113.707 63.9927
77.2475 113.728 64.1779
81.1434 113.002 64.5684
81.6542 113.369 64.3494
81.4819 113.499 64.6593
77.3896 114.128 64.1331
77.0853 113.918 64.3679
77.1035 114.246 64.5369
77.6752 114.081 63.9807
81.7579 113.741 64.3965
81.5464 114.013 64.7227
77.3655 114.504 64.5028
77.4882 114.839 64.649
77.7509 114.611 64.0803
81.7001 114.244 64.5363
81.4633 114.407 64.9088
77.9004 114.953 64.229
78.1986 115.178 64.0812
78.0315 115.263 64.3497
81.8087 114.658 64.4392
81.571 114.856 64.8356
78.2061 115.517 64.4262
78.5572 115.817 64.2307
78.4727 115.988 64.5963
81.8041 115.178 64.5354
81.5731 115.172 64.8972
78.7404 116.169 64.2378
78.6917 116.372 64.7193
81.7838 115.582 64.7045
81.9904 116.05 64.4524
78.961 116.507 64.5367
79.2972 116.829 64.3193
79.1505 116.857 64.8079
81.923 116.437 64.4586
81.6884 116.682 64.6797
81.8538 116.317 64.6631
79.4944 117.02 64.5815
79.661 117.281 64.44
79.6754 117.337 64.8977
81.9057 116.873 64.3918
81.6196 117.139 64.6169
79.9407 117.494 64.5902
80.2022 117.749 64.5858
81.9208 117.32 64.4442
81.6326 117.658 64.5314
82.2917 117.273 64.1403
80.5828 118.019 64.4748
81.0054 118.201 64.7267
81.9992 117.798 64.3195
81.6835 118.01 64.4149
81.3113 118.322 64.3847
76.9033 110.842 64.572
76.9384 110.598 64.9232
76.6035 110.887 64.8007
77.3361 110.542 64.8272
77.7993 110.546 64.7321
78.2283 110.687 65.0404
76.4284 111.33 64.616
76.2909 111.068 65.012
76.0805 111.513 65.1367
78.5717 110.927 64.9045
79.1308 111.142 64.7387
78.9391 111.273 65.251
76.3702 111.721 64.6418
76.6332 112.005 64.4869
76.4381 112.23 64.7772
79.3237 111.4 64.9055
79.672 111.599 64.7248
79.5202 111.675 64.9794
76.8082 112.421 64.436
76.5247 112.663 64.7617
79.7247 111.97 65.0405
80.1955 112.165 64.7181
80.0306 112.206 64.9771
76.9014 112.94 64.4505
76.6067 112.984 64.6912
80.3214 112.447 64.9034
80.7657 112.761 64.7956
80.5285 112.764 65.0475
76.7596 113.261 64.6438
77.012 113.525 64.4564
76.871 113.806 64.7619
80.7645 113.023 65.0591
81.1347 113.224 64.8904
80.9727 113.378 65.2014
76.9724 114.131 64.7995
81.2428 113.541 65.0503
81.4306 113.929 65.0403
77.125 114.491 64.8633
77.3064 114.975 65.114
81.3396 114.241 65.2128
81.1428 114.286 65.4143
81.1967 114.021 65.3815
77.8469 115.301 64.5978
77.5828 115.376 65.0554
81.071 114.526 65.4119
81.3794 114.955 65.2262
77.9445 115.541 64.7814
78.1489 115.765 64.7086
78.0289 115.787 64.9259
81.4222 115.405 65.1638
81.1609 115.707 65.4629
81.205 115.265 65.4225
78.1552 116.015 65.0926
78.4929 116.316 65.1398
81.4972 115.857 65.086
81.714 116.118 64.8798
81.4838 116.161 65.1058
78.7774 116.559 65.1552
79.1434 116.877 65.3816
81.4179 116.543 65.0218
81.1584 116.708 65.2449
81.2651 116.378 65.2981
79.4461 117.05 65.0891
79.7197 117.365 65.2868
81.3463 116.958 64.971
81.0097 117.155 65.2092
79.9747 117.526 65.0215
80.3914 117.672 65.2327
81.2049 117.615 64.8812
80.9576 117.578 65.0695
80.7386 117.867 64.9594
81.4243 117.965 64.6687
76.4434 110.803 65.1097
76.5169 110.637 65.4309
76.1852 110.943 65.4097
77.0627 110.563 65.4382
77.4039 110.545 65.2448
77.8788 110.586 65.189
77.7234 110.591 65.427
76.023 111.43 65.5301
78.0827 110.838 65.4166
78.4998 111 65.3199
78.7846 111.251 65.6071
76.1712 111.92 65.0281
76.0256 111.98 65.4202
79.3364 111.689 65.2673
78.9505 111.584 65.6279
76.2574 112.454 65.0399
76.079 112.671 65.3387
79.3575 112.002 65.5182
79.8211 112.206 65.2718
79.6289 112.365 65.6432
76.3337 112.942 65.0626
76.0768 113.055 65.4602
80.0894 112.569 65.3574
80.3689 112.768 65.2873
80.1611 112.787 65.4954
76.3725 113.364 65.174
76.6461 113.657 65.0049
76.5018 113.794 65.2525
80.2721 113.056 65.6616
[...]
POINT_DATA 684
SCALARS Scalars float
LOOKUP_TABLE default
0.5
0.5
0.5
0.5
0.5
0.5
0.5
0.5
0.5
0.5
0.5
0.5
0.5
0.5
0.5
0.5
0.5
0.5
0.5
0.5
0.5
0.5
0.5
0.5
0.5
0.5
0.5
0.5
0.5
0.5
0.5
0.5
0.5
0.5
0.5
0.5
0.5
0.5
0.5
0.5
0.5
0.5
0.5
0.5
0.5
0.5
0.5
0.5
0.5
0.5
0.5
0.5
0.5
0.5
0.5
0.5
0.5
0.5
0.5
0.5
0.5
0.5
0.5
0.5
0.5
0.5
0.5
0.5
0.5
0.5
0.5
0.5
0.5
0.5
0.5
0.5
0.5
0.5
0.5
0.5
0.5
0.5
0.5
0.5
0.5
0.5
0.5
0.5
0.5
0.5
0.5
0.5
0.5
0.5
0.5
0.5
0.5
0.5
0.5
0.5
0.5
0.5
0.5
0.5
0.5
0.5
0.5
0.5
0.5
0.5
0.5
0.5
0.5
0.5
0.5
0.5
0.5
0.5
0.5
0.5
0.5
0.5
0.5
0.5
0.5
0.5
0.5
0.5
0.5
0.5
0.5
0.5
0.5
0.5
0.5
0.5
0.5
0.5
0.5
0.5
0.5
0.5
0.5
0.5
0.5
0.5
0.5
0.5
0.5
0.5
0.5
0.5
0.5
0.5
0.5
0.5
0.5
0.5
0.5
0.5
0.5
0.5
0.5
0.5
0.5
0.5
0.5
0.5
0.5
0.5
0.5
0.5
0.5
0.5
0.5
0.5
0.5
0.5
0.5
0.5
0.5
0.5
0.5
0.5
0.5
0.5
0.5
0.5
0.5
0.5
0.5
0.5
0.5
0.5
0.5
0.5
0.5
0.5
0.5
0.5
0.5
0.5
0.5
0.5
0.5
0.5
0.5
0.5
0.5
0.5
0.5
0.5
0.5
0.5
0.5
0.5
0.5
0.5
0.5
0.5
0.5
0.5
0.5
0.5
0.5
0.5
0.5
0.5
0.5
0.5
0.5
0.5
0.5
0.5
0.5
0.5
0.5
0.5
0.5
0.5
0.5
0.5
0.5
0.5
0.5
0.5
0.5
0.5
0.5
0.5
0.5
0.5
0.5
0.5
0.5
0.5
0.5
0.5
0.5
0.5
0.5
0.5
0.5
0.5
0.5
0.5
0.5
0.5
0.5
0.5
0.5
0.5
0.5
0.5
0.5
0.5
0.5
0.5
0.5
0.5
0.5
0.5
0.5
0.5
0.5
0.5
0.5
0.5
0.5
0.5
0.5
0.5
0.5
0.5
0.5
0.5
0.5
0.5
0.5
0.5
0.5
0.5
0.5
0.5
0.5
0.5
0.5
0.5
0.5
0.5
0.5
0.5
0.5
0.5
0.5
0.5
0.5
0.5
0.5
0.5
0.5
0.5
0.5
0.5
0.5
0.5
0.5
0.5
0.5
0.5
0.5
0.5
0.5
0.5
0.5
0.5
0.5
0.5
0.5
0.5
0.5
0.5
0.5
0.5
0.5
0.5
0.5
0.5
0.5
0.5
0.5
0.5
0.5
0.5
0.5
0.5
0.5
0.5
0.5
0.5
0.5
0.5
0.5
0.5
0.5
0.5
0.5
0.5
0.5
0.5
0.5
0.5
0.5
0.5
0.5
0.5
0.5
0.5
0.5
0.5
0.5
0.5
0.5
0.5
0.5
0.5
0.5
0.5
0.5
0.5
0.5
0.5
0.5
0.5
0.5
0.5
0.5
0.5
0.5
0.5
0.5
0.5
0.5
0.5
0.5
0.5
0.5
0.5
0.5
0.5
0.5
0.5
0.5
0.5
0.5
0.5
0.5
0.5
0.5
0.5
0.5
0.5
0.5
0.5
0.5
0.5
0.5
0.5
0.5
0.5
0.5
0.5
0.5
0.5
0.5
0.5
0.5
0.5
0.5
0.5
0.5
0.5
0.5
0.5
0.5
0.5
0.5
0.5
0.5
0.5
0.5
0.5
0.5
0.5
0.5
0.5
0.5
0.5
0.5
0.5
0.5
0.5
0.5
0.5
0.5
0.5
0.5
0.5
0.5
0.5
0.5
0.5
0.5
0.5
0.5
0.5
0.5
0.5
0.5
0.5
0.5
0.5
0.5
0.5
0.5
0.5
0.5
0.5
0.5
0.5
0.5
0.5
0.5
0.5
0.5
0.5
0.5
0.5
0.5
0.5
0.5
0.5
0.5
0.5
0.5
0.5
0.5
0.5
0.5
0.5
0.5
0.5
0.5
0.5
0.5
0.5
0.5
0.5
0.5
0.5
0.5
0.5
0.5
0.5
0.5
0.5
0.5
0.5
0.5
0.5
0.5
0.5
0.5
0.5
0.5
0.5
0.5
0.5
0.5
0.5
0.5
0.5
0.5
0.5
0.5
0.5
0.5
0.5
0.5
0.5
0.5
0.5
0.5
0.5
0.5
0.5
0.5
0.5
0.5
0.5
0.5
0.5
0.5
0.5
0.5
0.5
0.5
0.5
0.5
0.5
0.5
0.5
0.5
0.5
0.5
0.5
0.5
0.5
0.5
0.5
0.5
0.5
0.5
0.5
0.5
0.5
0.5
0.5
0.5
0.5
0.5
0.5
0.5
0.5
0.5
0.5
0.5
0.5
0.5
0.5
0.5
0.5
0.5
0.5
0.5
0.5
0.5
0.5
0.5
0.5
0.5
0.5
0.5
0.5
0.5
0.5
0.5
0.5
0.5
0.5
0.5
0.5
0.5
0.5
0.5
0.5
0.5
0.5
0.5
0.5
0.5
0.5
0.5
0.5
0.5
0.5
0.5
0.5
0.5
0.5
0.5
0.5
0.5
0.5
0.5
0.5
0.5
0.5
0.5
0.5
0.5
0.5
0.5
0.5
0.5
0.5
0.5
0.5
0.5
0.5
0.5
0.5
0.5
0.5
0.5
0.5
0.5
0.5
0.5
0.5
0.5
0.5
0.5
0.5
0.5
0.5
0.5
0.5
0.5
0.5
0.5
0.5
0.5
0.5
