# vtk DataFile Version 3.0
this file was written using fslvtkio
ASCII
DATASET POLYDATA
POINTS 804 float
72.616 134.007 60.1819
71.8951 133.269 60.5888
71.436 134.69 60.2701
73.84 134.067 60.2843
73.8618 132.764 61.2864
74.8349 133.772 60.981
72.9121 135.588 60.2624
74.249 135.355 60.4968
58.6673 114.228 62.6831
58.0563 113.02 63.7004
57.2777 113.967 64.117
59.2773 113.438 63.1884
57.7592 115.175 62.9818
57.2613 115.597 64.481
60.4173 114.567 63.201
59.4173 115.57 62.3578
60.7406 115.98 62.9309
58.2104 116.429 63.1818
59.6813 116.942 62.928
67.1231 132.852 61.4243
66.1454 131.494 62.1749
65.3518 132.987 62.0164
68.6035 132.571 61.3538
67.9696 131.1 62.2871
69.9485 132.581 61.2568
69.4265 131.352 62.3475
71.2435 132.613 61.1269
71.1548 131.427 62.3871
72.9912 132.151 61.4903
72.607 131.693 62.2522
74.2323 132.088 62.6817
66.7892 134.23 61.3131
65.3754 134.694 62.0151
68.5358 134.536 60.8164
70.1032 134.313 60.635
75.4051 135.203 61.2412
75.2977 133.166 62.2165
76.0117 133.927 62.8153
66.7958 136.151 61.4645
65.5503 135.734 61.9928
68.4342 136.174 60.8605
70.1588 136.267 60.567
71.7816 136.276 60.4584
73.6741 136.81 60.6757
75.1666 136.759 61.2233
76.3227 135.652 62.3547
65.9326 136.765 62.1599
66.728 138.26 62.1152
68.0049 137.692 61.2523
69.7824 137.77 60.7963
71.4108 137.864 60.6644
72.9257 138.052 60.7693
74.3255 138.403 61.2417
76.0337 137.34 62.1991
68.3319 139.501 61.5669
67.1761 139.378 62.0974
69.794 139.516 61.1566
71.3158 139.406 60.975
73.0805 139.747 61.27
74.4855 139.69 62.076
75.5419 138.805 62.5381
67.6834 140.533 62.3753
68.7382 141.382 62.1603
69.4116 140.741 61.6725
71.352 140.846 61.5049
72.9326 141.612 62.4154
73.988 140.762 62.469
69.8221 142.161 62.2877
71.7606 142.317 62.3775
57.8211 111.978 64.4055
58.1607 111.346 65.3728
57.2064 112.546 65.4346
59.0918 111.975 64.481
56.9996 114.112 65.562
60.4612 113.623 63.8017
59.8414 112.851 64.1521
61.2082 113.951 64.7345
57.0481 116.165 65.706
61.4927 116.993 63.8864
61.496 115.246 64.0616
62.3164 116.189 65.2058
57.8832 117.144 64.3995
59.8562 117.851 63.5965
58.4097 118.641 64.4603
61.6726 118.097 64.1845
62.6942 117.493 65.8429
59.883 119.054 63.806
58.9159 119.973 64.4924
61.3829 119.461 64.2292
62.4033 119.085 65.2198
60.3996 120.575 64.3703
62.2114 124.915 63.9647
61.7555 123.258 64.725
60.8062 124.821 64.3693
63.0843 123.979 64.5694
62.3482 126.626 63.6654
60.8826 126.799 64.1843
63.7149 125.195 64.2897
63.8267 126.632 63.841
64.8497 125.717 65.0498
62.466 128.39 63.5345
61.1701 128.9 64.1447
64.382 128.516 63.3852
65.3935 127.312 64.5394
62.544 130.187 63.4361
61.4361 130.991 64.2674
63.9746 129.926 63.0614
65.8608 128.682 63.9802
65.766 130.218 62.9513
68.0179 130.213 63.4638
67.3659 129.377 64.1962
68.9749 129.862 64.9392
62.7998 132.034 63.4502
61.6014 132.511 64.5737
64.4108 131.426 62.8056
69.7544 130.613 64.127
71.2169 131.024 63.7413
72.8903 131.396 63.8581
74.1135 131.79 63.8233
62.7274 133.352 63.7154
63.2055 134.711 63.7381
64.011 133.584 62.8775
75.0376 132.624 63.9003
76.2368 134.278 63.9816
64.4144 135.463 62.8968
63.2904 135.734 63.9056
76.5588 136.151 63.4635
63.9367 136.696 63.8196
65.5016 137.888 62.888
64.5934 138.312 63.9236
76.3998 137.642 63.6785
66.2223 139.453 62.9262
65.1515 139.576 63.921
75.2885 139.923 63.8728
75.9585 138.842 64.4427
65.9371 140.748 63.9182
67.8935 141.713 62.9311
66.8131 141.872 63.8132
74.0374 141.637 63.3715
74.7907 140.954 64.3911
68.2031 142.725 63.4165
69.7213 143.464 63.2215
69.2062 144.256 64.0739
71.1896 143.479 63.1602
72.833 142.974 63.6422
73.746 142.305 64.2981
70.8357 144.592 64.3251
72.3023 143.972 64.5941
57.8364 110.324 66.1123
58.0923 109.652 67.2446
57.2321 111.115 66.8148
59.0485 110.322 66.1665
56.9397 112.577 66.8256
60.4906 112.436 65.1742
59.7923 111.406 65.5664
61.0936 111.907 66.6753
56.854 114.238 66.9626
61.6255 113.194 66.5531
56.8299 116.028 67.0854
62.0512 114.894 65.7173
62.6768 115.934 66.8987
57.4225 117.926 65.4791
56.9262 117.983 66.9614
62.9604 117.625 67.2265
57.8807 119.986 65.533
57.0873 119.917 66.9572
61.8258 120.756 65.1573
63.0251 119.552 66.6723
58.3062 121.76 65.4989
57.3333 121.846 66.8196
59.6616 121.837 64.7894
61.1346 122.227 64.8862
62.9904 121.222 66.0593
58.2391 123.48 65.8748
57.3149 123.403 67.3416
59.9354 123.666 64.8417
64.1957 124.151 65.3657
63.4183 122.806 65.6652
64.8306 123.817 66.813
58.2501 125.017 66.1195
58.7582 126.727 66.2191
59.336 125.43 65.1456
65.5528 125.476 66.3586
59.7685 127.255 65.0691
59.1182 128.367 66.199
66.1553 126.828 65.7851
66.6437 127.961 65.226
67.4003 127.631 67.0537
60.0826 129.261 65.1865
59.1952 129.844 66.6715
67.9394 128.782 65.7249
69.2779 129.55 66.816
60.299 130.774 65.4271
60.6522 132.531 65.7674
70.5865 130.518 65.845
71.9037 131.078 65.2648
73.6565 131.871 65.0648
72.9417 131.836 66.5676
61.9052 134.18 64.8457
60.9297 134.291 66.1644
74.3266 132.766 66.1453
75.4114 133.487 65.31
74.8289 134.005 66.9569
62.4023 135.896 65.0368
61.4172 136.076 66.5939
75.9825 134.781 65.639
76.4156 136.045 65.2013
62.735 137.122 65.3975
63.5854 138.128 64.964
62.9757 139.007 66.504
76.3008 137.689 65.1901
64.3495 139.769 64.9871
63.5522 140.228 66.619
75.1386 139.917 65.9217
75.689 138.589 66.1807
64.9749 141.089 65.2649
66.1611 142.146 64.7457
65.1724 142.477 66.4937
74.5687 141.264 65.9429
66.7206 143.161 65.0427
67.8534 143.96 64.6294
66.9066 144.405 66.1342
73.1758 143.241 65.8823
73.8185 142.336 66.3232
68.0934 145.194 65.5833
67.5678 145.578 66.8891
69.5176 145.336 65.166
71.1166 145.228 65.9758
72.2006 144.42 66.1546
68.8958 146.005 66.437
70.2295 145.869 66.7439
57.805 108.707 68.2068
57.8377 108.476 69.5336
57.3239 109.818 68.2274
58.9478 108.461 68.4766
56.9988 111.15 68.3864
60.3322 110.627 66.9273
59.6563 109.522 67.5566
60.9734 110.355 68.3437
56.8293 112.798 68.4127
61.4767 111.62 68.365
56.7355 114.315 68.3985
62.0462 113.225 67.9921
62.3171 114.499 67.1697
62.6206 114.473 68.7652
56.6845 116.267 68.4165
62.9114 116.054 68.7836
56.6745 117.971 68.3847
63.119 117.918 68.497
56.6924 119.841 68.5048
63.3291 119.691 68.1367
56.787 121.478 68.4897
63.7814 121.151 67.6064
64.1207 122.39 66.8391
64.6382 122.374 68.3298
56.8085 123.114 69.0265
65.3592 124.021 68.4607
57.532 125.171 67.4656
57.0339 125.065 69.0673
65.9866 125.217 67.8185
66.6143 126.398 67.1537
66.9575 126.423 68.5042
57.8191 126.683 67.8088
58.2968 128.365 67.9897
67.6556 127.529 68.8515
58.6189 130.015 68.2526
68.4895 128.749 67.5899
69.4096 129.612 68.7845
59.6406 131.482 66.7507
59.0053 131.704 68.3652
70.3393 130.375 67.6223
71.5273 131.105 67.4813
72.5944 131.826 67.6505
59.9659 133.057 67.1314
59.3565 133.398 68.9504
73.6503 132.848 67.7918
74.558 134.659 68.1247
60.1746 134.44 67.6722
60.6772 135.893 68.1596
75.703 135.718 66.6401
75.0425 136.295 67.8471
61.9196 137.452 66.8724
61.2102 137.344 68.3597
75.7563 137.159 66.7733
74.9195 138.256 67.8963
62.1504 138.851 67.9269
62.8198 140.112 68.3529
74.7031 139.943 67.3493
64.0675 141.336 67.1242
64.5376 142.574 68.1541
74.1977 141.247 67.237
73.3022 141.892 68.1893
73.7904 140.538 68.6697
65.8365 143.526 66.6932
65.2513 143.676 68.5437
72.7905 143.231 67.7773
66.1857 144.6 67.9703
67.0037 145.356 68.3441
71.3653 145.06 67.5617
72.2766 144.277 67.5052
68.425 146.143 67.8887
69.7436 145.922 68.3836
57.8461 108.516 71.1484
57.2511 109.673 70.001
60.0918 108.873 68.8417
59.0775 107.96 70.0323
60.5989 108.577 70.2413
56.9864 111.101 70.0155
61.2933 109.799 70.143
56.7756 112.856 70.0317
61.8093 111.193 70.1511
56.6497 114.509 70.1369
62.2087 112.933 69.3626
62.8532 114.213 70.5461
56.538 116.338 70.2048
63.0414 115.958 70.2341
56.4942 117.937 70.2241
63.2604 117.684 70.1503
56.4754 119.775 70.3232
63.5809 119.152 70.1815
56.5432 121.517 70.4438
64.0615 120.839 69.1318
64.76 122.064 69.8227
56.6508 123.124 70.5862
65.3536 123.291 70.3484
56.8545 124.97 70.5768
66.0193 124.784 69.358
66.9194 126.035 70.222
57.3842 126.823 69.1395
57.0884 126.631 70.627
67.5868 127.122 70.7007
57.8156 128.411 69.3091
58.3256 130.153 69.6603
68.505 128.578 69.4885
69.6335 129.86 70.6913
58.7402 131.939 70.0141
70.7499 130.81 69.3781
72.0875 131.859 68.8125
71.4639 131.822 70.4281
59.0843 133.402 70.5394
72.7538 133.025 69.6267
73.6941 133.917 68.9974
73.1139 134.38 70.3158
59.7934 134.814 69.4012
60.491 136.553 70.0646
74.2163 135.668 69.1585
73.4817 136.292 70.4131
60.9897 137.739 70.2407
74.41 137.292 68.9822
73.4954 138.176 70.1673
61.762 138.948 69.4067
62.3408 140.011 70.2075
74.0118 139.122 69.098
73.0156 140.219 70.0463
63.4619 141.347 68.7734
62.9933 141.199 70.7459
72.5476 142.144 69.4815
63.8948 142.434 69.8724
64.7871 143.527 70.1584
72.0803 143.663 68.723
71.1823 143.595 70.0579
71.9802 142.891 69.814
66.0734 144.572 70.0027
67.1784 145.267 70.2569
70.7329 144.977 68.9871
69.5167 145.205 69.8896
70.4705 144.478 70.0737
68.413 145.8 69.3253
58.3528 108.089 72.6384
57.2734 109.858 71.6506
59.5578 107.774 71.4599
60.8091 108.126 71.8473
56.9738 111.431 71.5591
61.6426 109.537 71.7047
56.7671 113.092 71.618
62.1639 111.129 71.3686
62.5151 112.686 70.8435
62.8413 112.465 72.2889
56.6139 114.681 71.7461
63.0625 114.118 72.0336
56.5055 116.573 71.9726
63.2362 115.838 71.7635
56.4612 118.118 71.9113
63.5102 117.457 71.7678
56.4613 119.92 72.014
63.8277 119.088 71.4994
56.5264 121.568 72.0429
64.2573 120.685 70.6781
65.0005 121.613 71.9501
56.6463 123.265 72.1786
65.4898 122.861 72.1327
56.8408 125.093 72.1655
66.0915 124.571 70.9723
67.0088 125.671 72.035
57.0515 126.59 72.6128
67.6977 126.909 72.2924
57.5829 128.669 70.5511
57.3391 128.192 72.0504
68.6343 128.632 71.1883
69.529 129.607 72.4978
57.953 130.081 71.3362
58.5016 131.564 71.8538
70.4298 130.843 71.5623
71.2498 132.19 72.6584
58.8687 132.928 72.6626
72.231 133.09 71.0386
72.7395 135.01 71.6339
59.5579 134.947 70.9019
59.2433 134.265 72.453
72.8875 136.784 71.6557
60.094 136.279 71.5651
60.8375 137.624 72.0995
72.8111 138.45 71.3366
61.4941 138.843 71.2666
62.3695 140.221 72.0421
72.2316 140.126 71.2639
71.3245 140.399 72.3789
71.8373 138.838 72.6178
[...]
POINT_DATA 804
SCALARS Scalars float
LOOKUP_TABLE default
50
50
50
50
50
50
50
50
50
50
50
50
50
50
50
50
50
50
50
50
50
50
50
50
50
50
50
50
50
50
50
50
50
50
50
50
50
50
50
50
50
50
50
50
50
50
50
50
50
50
50
50
50
50
50
50
50
50
50
50
50
50
50
50
50
50
50
50
50
50
50
50
50
50
50
50
50
50
50
50
50
50
50
50
50
50
50
50
50
50
50
50
50
50
50
50
50
50
50
50
50
50
50
50
50
50
50
50
50
50
50
50
50
50
50
50
50
50
50
50
50
50
50
50
50
50
50
50
50
50
50
50
50
50
50
50
50
50
50
50
50
50
50
50
50
50
50
50
50
50
50
50
50
50
50
50
50
50
50
50
50
50
50
50
50
50
50
50
50
50
50
50
50
50
50
50
50
50
50
50
50
50
50
50
50
50
50
50
50
50
50
50
50
50
50
50
50
50
50
50
50
50
50
50
50
50
50
50
50
50
50
50
50
50
50
50
50
50
50
50
50
50
50
50
50
50
50
50
50
50
50
50
50
50
50
50
50
50
50
50
50
50
50
50
50
50
50
50
50
50
50
50
50
50
50
50
50
50
50
50
50
50
50
50
50
50
50
50
50
50
50
50
50
50
50
50
50
50
50
50
50
50
50
50
50
50
50
50
50
50
50
50
50
50
50
50
50
50
50
50
50
50
50
50
50
50
50
50
50
50
50
50
50
50
50
50
50
50
50
50
50
50
50
50
50
50
50
50
50
50
50
50
50
50
50
50
50
50
50
50
50
50
50
50
50
50
50
50
50
50
50
50
50
50
50
50
50
50
50
50
50
50
50
50
50
50
50
50
50
50
50
50
50
50
50
50
50
50
50
50
50
50
50
50
50
50
50
50
50
50
50
50
50
50
50
50
50
50
50
50
50
50
50
50
50
50
50
50
50
50
50
50
50
50
50
50
50
50
50
50
50
50
50
50
50
50
50
50
50
50
50
50
50
50
50
50
50
50
50
50
50
50
50
50
50
50
50
50
50
50
50
50
50
50
50
50
50
50
50
50
50
50
50
50
50
50
50
50
50
50
50
50
50
50
50
50
50
50
50
50
50
50
50
50
50
50
50
50
50
50
50
50
50
50
50
50
50
50
50
50
50
50
50
50
50
50
50
50
50
50
50
50
50
50
50
50
50
50
50
50
50
50
50
50
50
50
50
50
50
50
50
50
50
50
50
50
50
50
50
50
50
50
50
50
50
50
50
50
50
50
50
50
50
50
50
50
50
50
50
50
50
50
50
50
50
50
50
50
50
50
50
50
50
50
50
50
50
50
50
50
50
50
50
50
50
50
50
50
50
50
50
50
50
50
50
50
50
50
50
50
50
50
50
50
50
50
50
50
50
50
50
50
50
50
50
50
50
50
50
50
50
50
50
50
50
50
50
50
50
50
50
50
50
50
50
50
50
50
50
50
50
50
50
50
50
50
50
50
50
50
50
50
50
50
50
50
50
50
50
50
50
50
50
50
50
50
50
50
50
50
50
50
50
50
50
50
50
50
50
50
50
50
50
50
50
50
50
50
50
50
50
50
50
50
50
50
50
50
50
50
50
50
50
50
50
50
50
50
50
50
50
50
50
50
50
50
50
50
50
50
50
50
50
50
50
50
50
50
50
50
50
50
50
50
50
50
50
50
50
50
50
50
50
50
50
50
50
50
50
50
50
50
50
50
50
50
50
50
50
50
50
50
50
50
50
50
50
50
50
50
50
50
50
50
50
50
50
50
50
50
50
50
50
50
50
50
50
50
50
50
50
50
50
50
50
50
50
50
50
50
50
50
50
50
