# vtk DataFile Version 3.0
this file was written using fslvtkio
ASCII
DATASET POLYDATA
POINTS 1128 float
65.2126 118.384 65.8413
64.899 117.835 65.9993
64.4438 118.43 66.0108
65.3699 117.805 66.4348
65.3231 119.195 65.7775
64.7467 119.644 65.752
65.6317 118.515 66.335
65.5295 120.211 65.7091
64.6413 120.396 65.7988
65.8366 119.443 66.1423
65.4247 121.214 65.497
64.481 121.451 65.95
66.4119 120.215 66.2599
66.2568 121.081 65.5842
66.8325 120.706 66.1355
65.1933 122.109 65.5902
64.6775 122.305 66.1071
66.081 121.93 65.4113
67.1548 121.363 65.9421
66.9662 121.911 65.5075
67.6955 121.562 66.501
65.2296 122.721 65.7058
65.5645 123.215 65.7068
66.1205 122.98 65.3675
66.8792 123.043 65.2972
67.7328 122.097 66.013
67.7522 122.931 65.4606
68.4093 122.582 66.2661
66.0914 123.708 65.7313
66.3912 124.717 66.023
66.8985 123.986 65.3981
67.775 123.938 65.2641
68.502 123.131 65.7423
68.5079 123.79 65.4131
69.2387 123.653 66.0161
67.2332 125.049 65.4665
66.618 125.498 66.1858
67.9789 124.945 65.3126
69.0039 124.955 65.32
69.4148 124.354 65.7495
67.2261 125.665 65.6811
67.4945 126.153 65.7383
67.9159 125.766 65.4096
69.0347 125.725 65.313
69.9743 125.072 65.936
70.0091 125.816 65.4091
70.5793 125.503 66.0438
67.7984 126.581 65.9034
68.2137 127.025 65.8587
68.7786 126.694 65.4365
69.7391 126.727 65.3413
71.1203 126.194 65.9181
70.9374 126.974 65.4004
72.1837 127.307 65.4745
71.7333 126.535 65.8621
72.451 126.815 65.8824
68.719 127.455 65.8341
69.2213 127.934 65.814
69.4732 127.389 65.4828
70.4787 127.612 65.3992
71.5306 127.868 65.3014
72.9418 127.262 65.936
72.7912 127.937 65.4514
73.5372 127.705 65.9092
69.6714 128.411 65.9804
70.7123 128.337 65.5612
71.5937 128.65 65.5099
71.885 129.26 65.7547
72.712 128.864 65.3621
73.8565 128.304 65.6552
73.8034 129.026 65.3707
75.1476 129.057 65.4275
75.0412 128.452 65.8543
75.973 129.122 65.4971
75.9349 128.52 65.9187
76.9068 129.429 65.5936
76.9076 128.587 66.0615
77.5275 129.109 66.0754
72.6274 129.617 65.5325
72.0505 129.833 65.873
73.3064 129.638 65.451
74.382 129.842 65.4403
75.3594 129.895 65.3877
76.4617 129.88 65.4749
77.4197 130.101 65.9148
72.5962 130.44 65.9743
73.874 130.503 65.7163
74.7566 130.526 65.6362
75.738 130.598 65.6643
76.7191 130.506 65.7528
64.0691 117.389 66.5422
63.8678 116.71 67.2451
63.535 117.433 66.8964
64.5069 116.887 66.9696
63.8414 118.115 66.4327
63.3215 118.449 67.0499
64.8445 117.491 66.5859
65.4848 117.627 67.0889
63.9833 118.867 66.2574
63.3672 119.066 66.9783
65.9057 118.488 66.9867
63.9589 119.74 66.2719
63.3586 119.782 67.1847
66.246 119.187 66.8493
66.3724 119.675 66.5544
66.7741 119.751 67.1217
63.8368 120.481 66.4847
63.4304 120.448 67.2683
67.3656 120.898 66.5164
67.018 120.313 66.7681
67.6569 120.826 67.2609
63.7879 121.121 66.7031
64.1502 121.911 66.939
67.994 121.467 67.5589
65.1044 123.129 66.2063
64.393 122.63 67.0379
68.1361 122.059 66.865
68.6725 122.54 67.0358
65.0986 123.51 66.5957
65.6618 124.117 66.411
65.2491 124.063 67.2907
68.934 123.037 66.5593
69.6243 123.679 66.8206
65.857 124.679 66.7807
66.1776 125.25 66.924
69.955 124.187 66.6813
69.9371 124.604 66.1809
70.4584 124.688 66.874
66.9775 126.108 66.2664
66.4668 126.007 66.9593
71.2862 125.724 66.4963
70.788 125.137 66.7107
71.5812 125.54 67.2482
67.154 126.797 66.7064
67.8655 127.268 66.3249
67.3959 127.499 67.1325
71.8198 126.118 66.6595
72.8689 126.733 66.2566
72.5294 126.407 66.5551
73.1792 126.682 66.7377
68.1464 127.803 66.5636
68.9245 128.184 66.271
68.4846 128.349 66.7166
74.2537 127.723 66.317
73.9688 127.171 66.7671
74.6574 127.505 66.865
69.0329 128.771 66.7774
69.7552 129.153 66.4708
69.3341 129.397 67.1184
70.4864 129.149 66.1116
71.1956 129.015 65.8256
74.98 128.006 66.452
75.9386 128.12 66.7043
76.9175 128.25 66.838
78.1661 129.534 66.4621
77.7138 128.562 66.7541
78.5162 129.2 66.9709
70.0097 129.886 67.1367
70.4833 130.486 67.437
70.6202 129.993 66.6368
71.5051 129.986 66.1728
78.1856 130.143 66.4806
78.7018 130.072 67.1083
71.0675 130.581 66.8852
71.9358 130.634 66.4867
72.7383 131.123 66.4531
72.3212 131.316 66.9365
73.5339 131.248 66.3259
74.5625 131.267 66.1241
75.383 131.269 66.0821
76.461 131.18 66.1107
77.2743 131.018 66.2694
78.0186 130.81 66.6889
72.9943 131.656 66.9721
73.6723 131.872 66.9915
74.1677 132.259 67.0302
74.2197 131.895 66.6353
75.1109 131.941 66.4035
76.059 131.933 66.3547
77.0364 131.818 66.4737
74.6921 132.614 67.1773
75.8161 132.527 66.7855
76.6357 132.42 66.7377
63.351 116.774 67.5059
63.5887 116.542 68.2859
62.9084 116.851 67.9855
64.1524 116.371 68.1504
65.0842 117.075 67.223
64.6573 116.513 67.7437
65.4603 116.92 68.0015
63.0214 117.602 67.3286
62.6646 117.51 67.9746
65.8353 117.583 67.9214
62.8919 118.185 67.6129
63.1113 118.695 67.9123
66.2141 118.299 67.6506
66.5079 118.962 67.4182
66.7379 118.796 68.0647
63.1843 119.5 68.0898
67.0387 119.491 68.084
63.3039 120.42 68.1607
67.3418 120.232 67.5873
67.7773 120.673 68.0568
63.6615 121.351 67.52
64.1122 122.013 67.8584
68.2146 121.401 68.4034
64.3335 122.715 67.9906
68.4606 122.016 67.9383
68.9478 122.603 67.7911
64.6822 123.373 67.4926
65.1695 124.072 68.2408
69.2603 123.091 67.338
69.8124 123.405 68.0734
65.5978 124.657 67.6427
66.0104 125.278 67.9643
70.168 124.086 67.4809
70.7801 124.531 68.078
66.2652 125.995 68.0336
71.162 125.043 67.7694
71.8932 125.555 68.1699
66.8194 126.75 67.354
67.0795 127.308 67.7771
72.1211 125.902 67.7734
72.6467 126.221 67.3549
73.366 126.521 67.4369
68.1067 128.339 67.2128
67.6306 128.286 67.9219
74.1864 126.966 67.6552
75.4424 127.7 67.1246
74.9672 127.189 67.7179
76.1567 127.709 67.434
75.9197 127.312 67.9891
76.6525 127.593 68.0236
68.1764 128.774 67.7992
68.7378 129.251 67.6251
68.434 129.271 68.3612
77.0245 128.028 67.6844
77.6738 128.191 67.6678
78.9866 129.31 67.4269
78.3952 128.527 67.493
79.0987 128.742 68.0474
69.1361 129.711 68.0151
69.8563 130.061 67.9173
70.1182 130.472 68.4012
79.2177 129.888 67.5751
79.4539 129.691 68.1969
70.9132 131.072 67.5426
70.6534 131.088 68.4295
71.6555 131.233 67.3018
77.9286 131.575 67.0185
78.5387 131.134 67.3586
79.1993 130.408 67.8506
71.4668 131.613 68.0704
72.1873 131.737 67.766
72.9398 132.018 67.8521
73.9084 132.455 67.5178
73.4408 132.585 68.1574
77.5955 132.35 67.1717
78.4656 131.945 67.6557
74.1423 132.881 68.0408
74.862 133.207 67.7473
74.6616 133.443 68.5522
75.788 133.17 67.4775
76.6281 133.054 67.4026
77.551 133.04 67.566
78.2388 132.693 67.7619
75.4007 133.601 68.3139
76.3129 133.535 68.0615
77.1484 133.502 68.1808
78.0711 133.281 68.254
63.0018 117.239 68.633
63.3777 117.002 69.1285
64.1886 116.418 68.9562
64.883 116.421 68.5508
65.6612 116.899 68.7598
62.813 118.016 68.308
63.1503 117.865 68.9625
66.1364 117.456 68.6499
66.3741 118.003 68.2852
66.6232 117.981 68.8898
63.1414 118.832 69.0018
66.9775 118.737 69.0368
63.2091 119.589 69.061
67.293 119.399 68.6821
67.4841 120.028 68.2491
67.7495 119.987 68.9202
63.4577 120.594 68.8542
63.645 121.252 68.2435
63.914 121.223 69.0342
68.0682 120.632 69.0607
64.1676 121.91 69.0101
68.3892 121.363 68.9909
64.5101 122.752 68.8349
64.719 123.404 68.2683
65.0067 123.374 69.2624
68.6647 121.858 68.7531
69.4301 122.927 68.1742
69.0978 122.295 68.6154
69.6765 122.785 68.8544
65.2382 124.03 69.4198
70.0117 123.226 69.0297
65.6506 124.819 68.6019
66.0062 125.445 68.9214
70.2458 123.863 68.4084
70.9 124.375 68.8773
66.2877 126.249 68.9066
71.4133 124.934 68.7516
72.0739 125.423 68.9555
66.6317 126.75 68.2693
67.1515 127.697 68.5227
72.6623 125.936 68.7158
73.0673 126.254 68.146
73.3242 126.29 68.9063
67.504 128.319 68.8244
73.7416 126.633 68.2555
74.3759 126.818 68.5163
75.0223 126.994 68.4839
75.913 127.143 68.6651
77.2867 127.736 68.4793
76.6341 127.311 68.7447
77.4398 127.521 69.4536
67.9697 128.762 68.6559
68.3859 129.261 69.3682
77.8676 128.055 68.6355
78.4999 128.306 68.3961
79.2928 128.798 68.9151
68.8755 129.69 68.9766
69.4513 129.967 68.8849
70.2251 130.677 69.0958
79.603 129.597 68.9484
70.7897 131.059 69.2092
71.3236 131.537 68.7986
71.41 131.563 69.5645
79.03 131.151 68.0603
79.5325 130.508 68.6359
72.0335 131.913 68.6731
72.7467 132.393 68.6253
72.5681 132.466 69.3772
78.9879 132.012 68.3954
79.3655 131.479 68.677
73.2334 132.768 68.9468
73.8648 133.092 69.0693
74.4483 133.554 69.2682
78.6026 132.791 68.7254
79.1779 132.118 69.0216
75.2259 133.729 69.0667
76.251 133.746 69.0029
76.9775 133.688 69.0388
77.9058 133.435 69.0331
64.3424 116.116 69.4965
63.8571 115.854 69.923
63.4878 116.458 69.7156
64.7253 115.919 70.0148
63.2047 117.297 69.6944
65.0418 116.391 69.2601
65.7886 116.753 69.8943
63.1425 118.026 69.8959
66.1997 117.252 69.4818
66.7132 117.9 69.6983
63.1878 118.915 69.8472
67.0316 118.54 69.8229
63.3144 119.759 69.7873
67.3796 119.196 69.3726
67.9173 119.859 69.6994
63.6306 120.602 69.5402
64.0436 121.047 69.9951
68.3652 120.359 69.7534
68.5216 120.931 69.4307
68.8447 120.794 70.0203
64.35 121.792 69.8189
64.5612 122.441 69.4529
64.833 122.411 70.2232
68.8658 121.639 69.393
69.0145 121.395 69.8549
65.1 123.215 70.2017
69.4511 122.034 69.7178
69.9373 122.633 69.8172
65.3087 123.867 70.387
70.4854 123.074 70.0868
70.5496 123.699 69.3322
70.9202 123.751 69.8891
65.6051 124.914 69.3731
65.424 124.588 70.058
71.1979 124.314 69.6868
65.9169 125.416 70.2155
66.2102 126.017 69.8557
71.4412 124.721 69.4009
72.4434 125.509 69.3587
72.2663 125.02 69.9121
72.8633 125.498 69.8389
66.7005 126.965 68.8903
66.4985 126.851 69.731
73.9426 126.393 69.1881
73.5071 125.993 69.6521
74.7351 126.563 69.2335
74.3471 126.151 69.8626
75.3443 126.673 69.3856
75.1933 126.261 70.08
75.7386 126.485 70.0565
66.9048 127.476 69.2746
67.2473 128.015 69.4449
75.9488 126.923 69.463
76.8279 127.202 69.6668
77.5418 127.465 70.3519
67.862 128.591 69.9429
68.3402 129.116 70.169
78.0078 127.949 69.7456
78.7389 128.386 69.414
79.3662 128.962 69.7767
68.9624 129.727 69.9411
69.5793 130.244 69.5548
69.5601 130.293 70.1842
79.6345 129.945 69.5633
70.304 130.793 69.9443
70.914 131.128 70.034
71.3902 131.557 70.4809
79.5378 130.721 69.5217
79.1446 131.313 70.0106
79.4265 130.546 70.198
[...]
POINT_DATA 1128
SCALARS Scalars float
LOOKUP_TABLE default
0.5
0.5
0.5
0.5
0.5
0.5
0.5
0.5
0.5
0.5
0.5
0.5
0.5
0.5
0.5
0.5
0.5
0.5
0.5
0.5
0.5
0.5
0.5
0.5
0.5
0.5
0.5
0.5
0.5
0.5
0.5
0.5
0.5
0.5
0.5
0.5
0.5
0.5
0.5
0.5
0.5
0.5
0.5
0.5
0.5
0.5
0.5
0.5
0.5
0.5
0.5
0.5
0.5
0.5
0.5
0.5
0.5
0.5
0.5
0.5
0.5
0.5
0.5
0.5
0.5
0.5
0.5
0.5
0.5
0.5
0.5
0.5
0.5
0.5
0.5
0.5
0.5
0.5
0.5
0.5
0.5
0.5
0.5
0.5
0.5
0.5
0.5
0.5
0.5
0.5
0.5
0.5
0.5
0.5
0.5
0.5
0.5
0.5
0.5
0.5
0.5
0.5
0.5
0.5
0.5
0.5
0.5
0.5
0.5
0.5
0.5
0.5
0.5
0.5
0.5
0.5
0.5
0.5
0.5
0.5
0.5
0.5
0.5
0.5
0.5
0.5
0.5
0.5
0.5
0.5
0.5
0.5
0.5
0.5
0.5
0.5
0.5
0.5
0.5
0.5
0.5
0.5
0.5
0.5
0.5
0.5
0.5
0.5
0.5
0.5
0.5
0.5
0.5
0.5
0.5
0.5
0.5
0.5
0.5
0.5
0.5
0.5
0.5
0.5
0.5
0.5
0.5
0.5
0.5
0.5
0.5
0.5
0.5
0.5
0.5
0.5
0.5
0.5
0.5
0.5
0.5
0.5
0.5
0.5
0.5
0.5
0.5
0.5
0.5
0.5
0.5
0.5
0.5
0.5
0.5
0.5
0.5
0.5
0.5
0.5
0.5
0.5
0.5
0.5
0.5
0.5
0.5
0.5
0.5
0.5
0.5
0.5
0.5
0.5
0.5
0.5
0.5
0.5
0.5
0.5
0.5
0.5
0.5
0.5
0.5
0.5
0.5
0.5
0.5
0.5
0.5
0.5
0.5
0.5
0.5
0.5
0.5
0.5
0.5
0.5
0.5
0.5
0.5
0.5
0.5
0.5
0.5
0.5
0.5
0.5
0.5
0.5
0.5
0.5
0.5
0.5
0.5
0.5
0.5
0.5
0.5
0.5
0.5
0.5
0.5
0.5
0.5
0.5
0.5
0.5
0.5
0.5
0.5
0.5
0.5
0.5
0.5
0.5
0.5
0.5
0.5
0.5
0.5
0.5
0.5
0.5
0.5
0.5
0.5
0.5
0.5
0.5
0.5
0.5
0.5
0.5
0.5
0.5
0.5
0.5
0.5
0.5
0.5
0.5
0.5
0.5
0.5
0.5
0.5
0.5
0.5
0.5
0.5
0.5
0.5
0.5
0.5
0.5
0.5
0.5
0.5
0.5
0.5
0.5
0.5
0.5
0.5
0.5
0.5
0.5
0.5
0.5
0.5
0.5
0.5
0.5
0.5
0.5
0.5
0.5
0.5
0.5
0.5
0.5
0.5
0.5
0.5
0.5
0.5
0.5
0.5
0.5
0.5
0.5
0.5
0.5
0.5
0.5
0.5
0.5
0.5
0.5
0.5
0.5
0.5
0.5
0.5
0.5
0.5
0.5
0.5
0.5
0.5
0.5
0.5
0.5
0.5
0.5
0.5
0.5
0.5
0.5
0.5
0.5
0.5
0.5
0.5
0.5
0.5
0.5
0.5
0.5
0.5
0.5
0.5
0.5
0.5
0.5
0.5
0.5
0.5
0.5
0.5
0.5
0.5
0.5
0.5
0.5
0.5
0.5
0.5
0.5
0.5
0.5
0.5
0.5
0.5
0.5
0.5
0.5
0.5
0.5
0.5
0.5
0.5
0.5
0.5
0.5
0.5
0.5
0.5
0.5
0.5
0.5
0.5
0.5
0.5
0.5
0.5
0.5
0.5
0.5
0.5
0.5
0.5
0.5
0.5
0.5
0.5
0.5
0.5
0.5
0.5
0.5
0.5
0.5
0.5
0.5
0.5
0.5
0.5
0.5
0.5
0.5
0.5
0.5
0.5
0.5
0.5
0.5
0.5
0.5
0.5
0.5
0.5
0.5
0.5
0.5
0.5
0.5
0.5
0.5
0.5
0.5
0.5
0.5
0.5
0.5
0.5
0.5
0.5
0.5
0.5
0.5
0.5
0.5
0.5
0.5
0.5
0.5
0.5
0.5
0.5
0.5
0.5
0.5
0.5
0.5
0.5
0.5
0.5
0.5
0.5
0.5
0.5
0.5
0.5
0.5
0.5
0.5
0.5
0.5
0.5
0.5
0.5
0.5
0.5
0.5
0.5
0.5
0.5
0.5
0.5
0.5
0.5
0.5
0.5
0.5
0.5
0.5
0.5
0.5
0.5
0.5
0.5
0.5
0.5
0.5
0.5
0.5
0.5
0.5
0.5
0.5
0.5
0.5
0.5
0.5
0.5
0.5
0.5
0.5
0.5
0.5
0.5
0.5
0.5
0.5
0.5
0.5
0.5
0.5
0.5
0.5
0.5
0.5
0.5
0.5
0.5
0.5
0.5
0.5
0.5
0.5
0.5
0.5
0.5
0.5
0.5
0.5
0.5
0.5
0.5
0.5
0.5
0.5
0.5
0.5
0.5
0.5
0.5
0.5
0.5
0.5
0.5
0.5
0.5
0.5
0.5
0.5
0.5
0.5
0.5
0.5
0.5
0.5
0.5
0.5
0.5
0.5
0.5
0.5
0.5
0.5
0.5
0.5
0.5
0.5
0.5
0.5
0.5
0.5
0.5
0.5
0.5
0.5
0.5
0.5
0.5
0.5
0.5
0.5
0.5
0.5
0.5
0.5
0.5
0.5
0.5
0.5
0.5
0.5
0.5
0.5
0.5
0.5
0.5
0.5
0.5
0.5
0.5
0.5
0.5
0.5
0.5
0.5
0.5
0.5
0.5
0.5
0.5
0.5
0.5
0.5
0.5
0.5
0.5
0.5
0.5
0.5
0.5
0.5
0.5
0.5
0.5
0.5
0.5
0.5
0.5
0.5
0.5
0.5
0.5
0.5
0.5
0.5
0.5
0.5
0.5
0.5
0.5
0.5
0.5
0.5
0.5
0.5
0.5
0.5
0.5
0.5
0.5
0.5
0.5
0.5
0.5
0.5
0.5
0.5
0.5
0.5
0.5
0.5
0.5
0.5
0.5
0.5
0.5
0.5
0.5
0.5
0.5
0.5
0.5
0.5
0.5
0.5
0.5
0.5
0.5
0.5
0.5
0.5
0.5
0.5
0.5
0.5
0.5
0.5
0.5
0.5
0.5
0.5
0.5
0.5
0.5
0.5
0.5
0.5
0.5
0.5
0.5
0.5
0.5
0.5
0.5
0.5
0.5
0.5
0.5
0.5
0.5
0.5
0.5
0.5
0.5
0.5
0.5
0.5
0.5
0.5
0.5
0.5
0.5
0.5
0.5
0.5
0.5
0.5
0.5
0.5
0.5
0.5
0.5
0.5
0.5
0.5
0.5
0.5
0.5
0.5
0.5
0.5
0.5
0.5
0.5
0.5
0.5
0.5
0.5
0.5
0.5
0.5
0.5
0.5
0.5
0.5
0.5
0.5
0.5
0.5
0.5
0.5
0.5
0.5
0.5
0.5
0.5
0.5
0.5
0.5
0.5
0.5
0.5
0.5
0.5
0.5
0.5
0.5
0.5
0.5
0.5
0.5
0.5
0.5
0.5
0.5
0.5
0.5
0.5
0.5
0.5
0.5
0.5
0.5
0.5
0.5
0.5
0.5
0.5
0.5
0.5
0.5
0.5
0.5
0.5
0.5
0.5
0.5
0.5
0.5
0.5
0.5
0.5
0.5
0.5
0.5
0.5
0.5
0.5
0.5
0.5
0.5
0.5
0.5
0.5
0.5
0.5
0.5
0.5
0.5
0.5
0.5
0.5
0.5
0.5
0.5
0.5
0.5
0.5
0.5
0.5
0.5
0.5
0.5
0.5
0.5
0.5
0.5
0.5
0.5
0.5
0.5
0.5
0.5
0.5
0.5
0.5
0.5
0.5
0.5
0.5
0.5
0.5
0.5
0.5
0.5
0.5
0.5
0.5
0.5
0.5
0.5
0.5
0.5
0.5
0.5
0.5
0.5
0.5
0.5
0.5
0.5
0.5
0.5
0.5
0.5
0.5
0.5
0.5
0.5
0.5
0.5
0.5
0.5
0.5
0.5
0.5
0.5
0.5
0.5
0.5
0.5
0.5
0.5
0.5
0.5
0.5
0.5
0.5
0.5
0.5
0.5
0.5
0.5
0.5
0.5
0.5
0.5
0.5
0.5
0.5
0.5
0.5
0.5
0.5
0.5
0.5
0.5
0.5
0.5
0.5
0.5
0.5
0.5
0.5
0.5
0.5
0.5
0.5
0.5
0.5
0.5
0.5
0.5
0.5
0.5
0.5
0.5
0.5
0.5
0.5
0.5
0.5
0.5
0.5
0.5
0.5
0.5
0.5
0.5
0.5
0.5
0.5
0.5
0.5
0.5
0.5
0.5
0.5
0.5
0.5
0.5
0.5
0.5
0.5
0.5
0.5
0.5
0.5
0.5
0.5
0.5
0.5
0.5
0.5
0.5
0.5
0.5
0.5
0.5
0.5
0.5
0.5
0.5
0.5
0.5
0.5
0.5
0.5
0.5
0.5
0.5
0.5
0.5
0.5
0.5
0.5
0.5
0.5
0.5
0.5
0.5
0.5
0.5
0.5
0.5
0.5
0.5
0.5
0.5
0.5
0.5
0.5
0.5
0.5
0.5
0.5
0.5
0.5
0.5
0.5
0.5
0.5
0.5
0.5
0.5
0.5
0.5
0.5
0.5
0.5
0.5
0.5
0.5
0.5
0.5
0.5
0.5
0.5
0.5
0.5
0.5
0.5
0.5
0.5
0.5
0.5
0.5
0.5
0.5
0.5
0.5
0.5
0.5
0.5
0.5
0.5
0.5
