# vtk DataFile Version 3.0
this file was written using fslvtkio
ASCII
DATASET POLYDATA
POINTS 828 float
81.1923 134.597 61.7667
81.1404 133.856 62.3761
80.1284 134.871 61.9589
82.1751 134.78 62.4456
81.3513 135.579 61.9411
79.8237 133.727 62.6802
79.9931 133.018 64.0052
78.9083 133.915 63.6979
81.1906 133.186 63.2155
78.9744 135.097 62.599
78.175 134.766 63.9844
77.9796 135.998 63.2904
82.3129 136.161 62.6274
82.9046 134.181 63.4743
83.3168 135.425 63.5683
79.0994 136.661 62.2307
77.7956 137.196 63.3132
80.3833 136.513 62.0338
81.6041 137.251 62.5241
83.2625 137.146 63.8124
78.7377 138.136 62.5838
77.7138 138.96 63.642
80.2724 137.981 62.2486
81.4649 138.681 62.8946
82.4583 138.224 63.404
79.0367 139.523 63.0376
80.5355 139.462 62.9806
80.3897 132.872 65.4682
79.0086 133.752 65.3269
82.3303 133.124 63.9034
81.3627 132.676 64.3864
82.908 133.248 65.1782
78.2063 134.726 65.3684
77.4842 136.199 64.6297
84.0133 135.854 64.6225
83.6758 134.325 64.7613
84.183 134.971 65.8628
77.3303 137.395 64.4639
84.0882 136.73 64.7556
84.4174 136.559 66.0114
77.1513 138.534 64.7988
81.8567 139.825 63.7758
83.2037 138.723 64.5157
83.9363 137.58 65.1462
78.4236 140.542 63.7326
77.2918 139.94 64.6183
80.2608 140.569 63.4957
81.4595 141.307 64.2776
82.8993 140.358 65.1204
77.8109 141.717 64.194
76.7873 141.052 65.128
79.9073 141.943 64.0045
81.2252 142.556 64.8814
82.4714 141.552 65.3856
76.6112 142.486 64.8269
75.8543 141.86 65.8366
75.5721 143.054 65.941
77.3667 143.437 64.4009
78.8901 143.192 64.1766
80.3287 143.591 64.8537
76.0497 144.382 65.387
77.9604 144.464 64.6577
79.3085 144.524 64.8785
79.9333 133.169 66.1724
80.9918 133.087 67.0175
81.6317 132.721 65.7426
82.6299 133.09 66.6555
77.6873 135.659 65.8583
78.6117 134.614 66.8702
79.6226 133.725 66.7745
83.5281 133.751 66.6302
84.2483 134.835 67.1426
77.7849 135.888 66.9899
77.0504 137.286 66.2009
84.613 136.106 67.3912
76.8735 138.658 66.1079
83.99 138.642 65.8339
84.6942 137.571 67.2213
76.5123 139.809 66.624
83.6634 140.005 66.1979
84.4603 138.944 67.2004
75.983 140.896 66.5087
75.7178 140.537 67.8431
75.1809 142.144 67.2415
82.1673 142.693 65.9012
83.2204 141.837 66.8856
74.9402 143.712 66.8579
81.3716 144.236 66.3884
82.6451 143.07 67.0559
74.9314 145.55 66.3779
74.1091 144.745 67.3939
73.8344 146.044 67.6481
76.1339 145.94 65.6904
77.4298 145.674 65.3055
78.8438 145.914 65.58
80.5305 145.062 66.1859
74.5936 146.961 66.972
73.6621 147.507 68.362
75.9032 147.107 66.4115
77.5205 147.057 66.0558
78.8952 146.962 66.5337
80.2442 146.136 66.9024
75.3842 148.217 67.3512
76.9954 148.374 67.4087
78.2716 147.958 67.4268
81.8761 132.895 67.1068
79.5321 134.169 67.7393
80.5567 133.771 68.1917
82.2678 133.52 68.5236
83.483 133.901 68.1931
84.1951 134.837 68.873
77.3373 136.905 67.5521
78.266 135.636 68.4075
79.308 134.667 68.7896
84.678 136.163 68.9597
77.509 136.811 68.9271
76.777 138.144 67.6048
84.8897 137.476 68.9279
76.2379 139.343 68.2157
84.3001 140.091 67.7083
84.8918 138.846 69.0663
75.3854 140.502 69.1975
74.7962 142.115 68.4545
83.8009 141.636 68.1145
84.5899 140.4 69.0484
74.2397 143.456 68.038
73.8663 143.038 69.4881
73.4356 144.567 68.902
82.2516 144.236 67.6736
83.2114 143.146 68.4655
73.0409 145.997 69.2969
81.4145 145.514 68.0999
82.6797 144.365 68.9087
72.8678 147.286 69.7356
79.4756 147.457 67.8617
80.5525 146.746 68.2844
74.5737 148.818 68.3358
73.7373 148.932 69.5793
75.924 149.209 68.214
77.2335 149.085 68.7409
78.5743 148.609 69.3448
74.9528 149.803 69.6582
76.3007 149.761 69.6322
81.8423 133.735 70.2599
80.5483 134.113 69.4365
83.1285 134.004 69.9646
84.2071 135.217 70.4628
79.3726 134.808 70.2762
78.315 135.79 69.8279
84.7188 136.409 70.539
77.4008 136.855 70.5932
76.7512 137.879 69.5077
84.9371 137.73 70.5661
76.1707 138.936 69.8462
84.963 138.983 70.6597
75.2066 140.216 70.4981
74.4825 141.538 70.3171
84.3185 141.561 69.5187
84.7952 140.45 70.6083
73.5891 142.648 71.1149
73.0954 144.101 70.2428
83.7819 142.794 69.8162
84.3235 142.037 71.0842
72.5865 145.436 70.7216
82.3643 145.201 69.4558
83.0058 144.413 70.5399
72.1899 146.85 70.9176
71.6967 146.333 72.1081
71.6525 147.821 72.6512
79.9869 147.768 69.3217
81.0997 146.872 69.9037
82.1173 145.797 70.3562
72.2403 148.025 70.9969
73.0154 149.087 70.8427
77.5023 149.414 70.3795
78.9793 148.77 71.4375
80.0877 148.002 70.5972
74.1721 149.965 71.0515
75.7529 150.031 70.9207
81.9845 133.954 71.8572
80.4761 134.163 71.0898
83.2189 134.305 71.4509
83.0717 134.392 73.2554
79.3211 134.802 72.2609
78.3537 135.64 71.6448
83.9411 135.13 71.9138
84.599 136.496 72.2319
77.5081 136.483 72.4019
76.6802 137.679 71.3708
84.8814 138.04 72.0314
75.8408 138.96 71.1422
75.674 138.734 72.5337
74.9028 140.098 71.8048
84.8639 139.601 72.1511
74.2096 141.315 71.7973
84.6842 140.955 72.1639
73.1851 142.561 72.547
72.5746 143.873 72.3199
83.5175 143.585 71.8116
84.0618 142.555 72.7657
72.0222 145.09 72.2662
71.9202 144.566 73.6122
71.4296 146.109 73.4432
82.9303 144.709 72.1413
71.3391 147.219 74.0454
81.1261 147.174 71.4876
82.1214 146.077 72.1996
72.1311 148.925 72.4111
71.8369 148.706 74.181
77.4114 149.558 71.8969
78.5561 148.958 73.1166
80.0267 148.158 72.5054
72.9196 149.771 72.8058
74.3272 150.219 72.6007
75.626 150.123 72.3123
81.8592 133.762 73.437
80.6288 133.918 73.0489
82.7453 134.15 74.8351
79.1283 134.537 73.8035
78.2093 135.415 73.458
83.8002 135.389 73.4095
83.3973 135.231 75.0493
77.2577 136.38 74.0543
76.5356 137.462 73.2036
84.2645 136.546 73.8127
84.6821 137.797 73.4662
75.6481 138.34 74.0942
74.603 139.837 73.5707
84.7347 139.545 73.7725
73.842 141.116 73.2403
73.7402 140.66 74.61
72.9223 142.204 73.9438
84.552 140.965 73.6954
72.3525 143.285 74.0648
83.3611 143.551 73.7834
83.966 142.295 74.2402
71.6182 144.217 75.0062
71.2221 145.665 75.0975
82.695 144.898 73.902
71.2029 146.868 75.5774
81.253 146.942 73.5825
82.149 146.017 73.5369
71.5432 148.09 76.0656
77.0224 149.596 73.3045
75.7139 149.844 74.0343
77.0162 149.297 75.0628
78.4697 148.791 74.8084
79.7047 148.182 74.2897
72.6127 149.551 74.6752
73.9594 150.022 74.0612
81.3792 133.559 74.7621
81.2065 132.684 76.5502
80.4179 133.197 75.4847
82.4418 133.499 76.5185
80.0725 133.877 74.4333
79.2442 133.478 75.8932
78.5795 134.235 75.4139
83.1472 134.642 76.6909
77.7521 135.26 75.4416
83.5562 136.334 77.081
77.1296 136.236 75.0842
76.3867 137.155 74.8753
84.0483 136.802 75.3161
84.5141 138.225 74.9039
75.526 138.185 75.1302
74.6132 139.267 75.1225
84.4928 139.653 75.1952
73.6792 140.178 75.8917
72.6829 141.642 75.8471
84.1877 141.116 75.1634
83.4534 142.099 76.0647
83.9149 140.521 76.4189
72.0168 142.948 75.6469
71.8754 142.519 77.0475
71.2546 144.147 76.5209
82.9325 143.6 75.9973
70.9933 145.339 76.8447
81.9793 145.676 74.8252
81.3153 146.033 76.1555
82.182 144.698 76.6324
71.1233 146.578 77.3501
80.7975 147.024 74.9736
79.4954 147.754 76.1828
80.2655 146.813 77.0167
71.9183 148.019 77.6239
75.4968 149.636 75.412
76.8292 148.972 76.7564
78.3394 148.441 76.5112
72.5439 149.092 76.4613
74.0148 149.746 75.8651
79.9447 132.692 76.7915
79.8753 132.095 78.052
78.8423 132.918 77.4637
81.6982 132.485 77.7532
82.7967 133.435 78.2398
77.9172 134.126 77.1148
83.2754 134.851 78.3999
76.9897 135.942 76.0816
77.1472 135.082 77.1314
76.4015 135.946 77.227
83.4898 136.62 78.6604
75.591 137.621 76.1543
75.5182 136.608 77.8192
74.7058 137.789 77.6156
83.9997 137.63 76.67
83.5433 137.99 78.1023
74.3776 138.837 76.6107
73.6717 138.825 78.0714
73.1509 140.08 77.2299
84.0697 139.031 76.6757
83.4804 140.262 77.7231
72.4197 141.14 77.5065
83.1315 141.99 77.7052
71.6359 141.976 78.5144
71.1348 143.303 78.4375
82.5771 143.434 77.7928
71.0001 144.863 78.7313
81.1171 145.452 78.0235
81.9896 144.508 77.9294
71.3367 146.406 79.1176
78.9538 147.495 78.016
80.1989 146.431 78.1903
72.6689 148.113 78.6203
73.3676 148.979 77.4338
74.816 148.899 78.2172
75.0962 149.36 76.7664
76.2653 148.809 78.035
77.6567 148.27 78.1625
80.4471 131.423 79.0022
79.8366 130.785 80.373
78.9006 131.724 79.2579
82.0541 132.158 78.9532
81.3464 131.165 80.1201
82.5346 132.297 80.2463
77.9414 132.896 78.8076
82.99 133.723 80.1493
77.1684 134.215 78.2896
76.8431 133.395 79.742
76.1735 134.229 79.8084
83.2667 135.285 80.1525
75.937 135.462 78.6668
75.2231 135.261 80.0397
74.882 136.459 79.1455
83.3711 137.301 79.888
74.0893 137.538 79.2512
83.3404 139.034 79.4417
73.4459 138.474 79.1563
72.794 139.296 79.2281
83.0746 140.779 79.3886
72.042 140.75 79.0733
71.8308 140.05 80.4568
71.1687 141.639 80.2021
82.6103 142.271 79.3768
70.9313 143.083 80.193
81.5917 144.19 79.0536
80.9856 144.256 80.368
81.6892 143.201 80.4557
70.9436 144.706 80.4261
80.191 145.755 79.1943
78.975 146.346 80.4643
79.991 145.173 80.9283
71.2793 145.822 80.8201
78.5423 147.151 79.4219
77.3107 147.829 79.6052
77.5732 147.153 80.8816
72.0665 147.271 80.028
73.8699 148.388 79.5092
75.6121 148.435 79.3984
80.3503 130.109 81.7172
79.7608 129.609 82.1726
78.5224 130.476 81.4432
81.0009 129.756 83.315
77.8366 131.479 80.6741
81.7214 130.885 81.4885
82.5752 132.523 81.6372
77.2325 132.486 80.266
76.8549 131.92 81.362
76.0327 132.755 81.6717
82.91 133.97 81.8045
75.5473 134.089 81.0156
83.1803 135.904 81.2787
74.8577 134.922 81.1093
74.175 136 80.9873
83.1535 137.494 81.3574
73.2802 137.931 80.2582
73.516 136.681 81.3165
72.8215 137.332 81.7009
83.0701 138.993 81.0249
72.3262 138.813 80.8864
71.8187 138.236 82.5009
71.2466 139.79 82.0393
82.7767 140.562 80.9378
70.8777 141.356 82.0887
82.228 141.959 80.8591
81.2377 142.456 82.3504
81.8206 141.234 82.4904
70.8098 142.867 82.1545
80.5733 143.683 82.2232
71.0541 144.117 82.407
78.7319 145.967 81.743
79.8228 144.921 81.8497
71.7263 145.659 82.4954
76.3864 147.81 80.6504
75.0635 147.979 80.9831
75.8939 147.111 82.195
77.3356 146.465 82.4769
72.3112 146.982 81.5233
73.753 148.044 80.7198
79.5698 128.992 83.1411
79.2225 127.494 84.4944
78.5628 128.324 83.4757
80.4172 128.352 84.4703
78.0544 129.734 82.6264
77.409 128.36 83.9468
76.8876 129.48 83.5562
81.1611 129.527 84.8366
76.9618 130.948 82.2933
75.9099 130.746 83.458
[...]
POINT_DATA 828
SCALARS Scalars float
LOOKUP_TABLE default
50
50
50
50
50
50
50
50
50
50
50
50
50
50
50
50
50
50
50
50
50
50
50
50
50
50
50
50
50
50
50
50
50
50
50
50
50
50
50
50
50
50
50
50
50
50
50
50
50
50
50
50
50
50
50
50
50
50
50
50
50
50
50
50
50
50
50
50
50
50
50
50
50
50
50
50
50
50
50
50
50
50
50
50
50
50
50
50
50
50
50
50
50
50
50
50
50
50
50
50
50
50
50
50
50
50
50
50
50
50
50
50
50
50
50
50
50
50
50
50
50
50
50
50
50
50
50
50
50
50
50
50
50
50
50
50
50
50
50
50
50
50
50
50
50
50
50
50
50
50
50
50
50
50
50
50
50
50
50
50
50
50
50
50
50
50
50
50
50
50
50
50
50
50
50
50
50
50
50
50
50
50
50
50
50
50
50
50
50
50
50
50
50
50
50
50
50
50
50
50
50
50
50
50
50
50
50
50
50
50
50
50
50
50
50
50
50
50
50
50
50
50
50
50
50
50
50
50
50
50
50
50
50
50
50
50
50
50
50
50
50
50
50
50
50
50
50
50
50
50
50
50
50
50
50
50
50
50
50
50
50
50
50
50
50
50
50
50
50
50
50
50
50
50
50
50
50
50
50
50
50
50
50
50
50
50
50
50
50
50
50
50
50
50
50
50
50
50
50
50
50
50
50
50
50
50
50
50
50
50
50
50
50
50
50
50
50
50
50
50
50
50
50
50
50
50
50
50
50
50
50
50
50
50
50
50
50
50
50
50
50
50
50
50
50
50
50
50
50
50
50
50
50
50
50
50
50
50
50
50
50
50
50
50
50
50
50
50
50
50
50
50
50
50
50
50
50
50
50
50
50
50
50
50
50
50
50
50
50
50
50
50
50
50
50
50
50
50
50
50
50
50
50
50
50
50
50
50
50
50
50
50
50
50
50
50
50
50
50
50
50
50
50
50
50
50
50
50
50
50
50
50
50
50
50
50
50
50
50
50
50
50
50
50
50
50
50
50
50
50
50
50
50
50
50
50
50
50
50
50
50
50
50
50
50
50
50
50
50
50
50
50
50
50
50
50
50
50
50
50
50
50
50
50
50
50
50
50
50
50
50
50
50
50
50
50
50
50
50
50
50
50
50
50
50
50
50
50
50
50
50
50
50
50
50
50
50
50
50
50
50
50
50
50
50
50
50
50
50
50
50
50
50
50
50
50
50
50
50
50
50
50
50
50
50
50
50
50
50
50
50
50
50
50
50
50
50
50
50
50
50
50
50
50
50
50
50
50
50
50
50
50
50
50
50
50
50
50
50
50
50
50
50
50
50
50
50
50
50
50
50
50
50
50
50
50
50
50
50
50
50
50
50
50
50
50
50
50
50
50
50
50
50
50
50
50
50
50
50
50
50
50
50
50
50
50
50
50
50
50
50
50
50
50
50
50
50
50
50
50
50
50
50
50
50
50
50
50
50
50
50
50
50
50
50
50
50
50
50
50
50
50
50
50
50
50
50
50
50
50
50
50
50
50
50
50
50
50
50
50
50
50
50
50
50
50
50
50
50
50
50
50
50
50
50
50
50
50
50
50
50
50
50
50
50
50
50
50
50
50
50
50
50
50
50
50
50
50
50
50
50
50
50
50
50
50
50
50
50
50
50
50
50
50
50
50
50
50
50
50
50
50
50
50
50
50
50
50
50
50
50
50
50
50
50
50
50
50
50
50
50
50
50
50
50
50
50
50
50
50
50
50
50
50
50
50
50
50
50
50
50
50
50
50
50
50
50
50
50
50
50
50
50
50
50
50
50
50
50
50
50
50
50
50
50
50
50
50
50
50
50
50
50
50
50
50
50
50
50
50
50
50
50
50
50
50
50
50
