# vtk DataFile Version 4.0
vtk output
ASCII
DATASET POLYDATA
POINTS 982 float
62.6122 116.705 44.6357 61.8602 115.479 45.2083 61.1685 116.382 45.2614 
63.7859 116.481 44.4844 63.0827 115.393 44.9594 65.1854 116.729 44.4735 
64.4529 115.381 44.9249 65.7221 115.63 45.0134 61.3154 117.484 45.1281 
60.0425 116.797 46.0889 60.5728 118.107 46.1253 62.4764 117.952 44.5941 
63.7198 117.634 44.3332 65.0381 117.744 44.3395 66.3512 116.86 44.7454 
66.4057 117.968 44.6421 67.4993 117.499 45.1668 61.3468 118.701 45.4366 
61.6262 119.262 45.3696 62.2757 119 44.9719 63.5037 119.021 44.5566 
64.7895 118.816 44.424 66.0482 119.02 44.6766 67.8378 118.95 45.5177 
62.3018 119.639 45.5442 63.4397 120.435 45.6733 63.3981 119.863 45.0636 
64.856 119.69 44.7917 65.9935 119.928 44.9514 67.1553 119.627 45.1966 
64.5997 120.474 45.6292 65.8212 120.529 45.6304 59.4771 112.822 46.6348 
58.6874 111.874 47.3188 58.2205 112.936 47.2172 61.201 112.864 46.1618 
60.2514 111.65 46.9404 62.8114 112.877 46.0343 62.0051 111.668 46.6933 
64.6678 112.969 46.09 63.6768 111.704 46.6825 66.0789 113.139 46.205 
65.6009 111.622 47.0341 66.8784 112.369 46.9153 58.8931 114.108 46.6585 
57.9479 114.494 47.5072 60.2512 113.95 46.1131 62.0694 113.992 45.6842 
63.9118 114.124 45.5584 65.4685 114.357 45.6235 67.238 113.449 46.4216 
66.9754 114.582 45.8571 68.4568 113.818 46.7771 59.0577 115.807 46.658 
58.2328 115.722 47.9244 60.2517 115.259 45.961 67.1604 116.103 45.4123 
68.5612 114.974 46.2914 68.5404 116.143 45.9331 69.6661 115.665 46.6153 
58.7974 116.477 47.2374 59.587 117.241 47.0508 68.6439 117.378 45.747 
69.7674 116.761 46.4376 61.2246 119.161 46.1313 60.4551 118.669 47.1007 
68.8589 118.647 46.082 69.7393 118.043 46.6004 61.9305 119.793 46.9646 
62.6934 120.367 46.2611 63.0533 120.339 47.1448 67.0124 120.257 45.6387 
68.0998 119.715 46.1984 69.4546 119.314 46.9227 63.9796 120.652 46.5368 
64.9763 120.665 46.6974 66.1801 120.646 46.6212 67.2131 120.495 46.5073 
57.8679 110.301 48.5115 57.2014 109.333 49.4873 56.6332 110.335 49.2584 
59.2946 110.746 47.7843 58.7434 109.391 48.8231 60.8593 110.602 47.5585 
60.2198 109.579 48.397 62.6328 110.605 47.4404 61.8932 109.481 48.3332 
64.2124 110.662 47.4824 63.5658 109.663 48.2261 65.457 110.65 47.6629 
65.2889 109.677 48.4555 66.5058 110.571 48.0903 57.4132 111.593 48.2707 
56.5021 111.656 49.2158 68.5298 112.687 47.4509 67.2255 111.457 47.7067 
69.7355 112.801 47.908 68.743 111.314 48.4523 70.1837 111.645 48.8723 
57.1994 112.833 48.1465 56.534 112.89 49.3152 69.6933 114.251 47.2359 
70.8406 112.949 48.3947 71.0926 114.492 47.8336 71.9374 113.573 48.7079 
57.1673 114.003 48.5479 57.5632 115.19 49.0012 70.9361 115.782 47.377 
72.3561 114.84 48.434 72.0371 116.018 48.0264 73.0911 115.582 48.7391 
58.5292 116.67 48.118 58.2184 116.431 49.282 70.8324 117.282 47.2525 
71.8897 117.346 47.9407 73.2235 117.244 48.9464 59.0331 117.507 48.5249 
59.8771 118.326 48.3122 70.8327 118.464 47.6404 71.8922 118.436 48.2381 
72.7287 118.028 48.6172 61.3356 119.43 48.0411 62.8882 119.955 48.2671 
64.3782 120.413 47.7341 64.8413 120.13 48.868 65.7818 120.416 47.9388 
66.7579 120.091 48.8967 67.2105 120.3 47.8185 68.6529 119.8 48.6312 
68.2191 120.047 47.2282 69.9582 119.518 48.3521 71.175 119.18 48.5 
58.1841 108.36 49.8358 57.3382 107.784 50.6303 56.286 108.485 50.7863 
59.592 108.349 49.4933 58.6399 107.43 50.5149 61.1155 108.393 49.3176 
60.3492 107.421 50.2289 62.7902 108.473 49.2551 61.8987 107.454 50.1464 
64.638 108.668 49.2667 63.6888 107.509 50.1996 66.3608 108.985 49.3563 
65.5583 107.938 50.0927 68.1564 109.448 49.6419 67.328 108.025 50.5701 
68.6104 108.54 50.6629 55.8737 109.745 50.4669 67.9141 110.363 48.8744 
69.6318 109.599 50.2401 69.8603 110.588 49.5347 71.6368 111.101 50.1104 
71.2328 109.877 51.0806 72.2977 110.646 51.0053 55.5778 111.028 50.5643 
55.147 110.256 51.4364 54.9811 111.117 52.0341 71.7606 112.238 49.4269 
72.7434 111.553 50.6321 73.011 112.713 49.9912 73.6397 111.982 51.6027 
55.5485 111.921 50.9339 56.1574 112.997 50.7543 73.0855 113.915 49.3441 
74.1427 113.032 50.8819 74.0921 114.101 49.9908 74.9689 113.842 51.1993 
56.7864 114.142 50.1006 57.6334 115.504 50.5511 73.9383 115.363 49.4179 
75.2735 114.815 50.5599 74.9805 115.566 50.1053 75.8641 115.624 51.0345 
58.4556 116.589 50.7293 74.2226 116.795 49.6756 75.0852 116.785 50.3197 
75.6856 116.399 50.7819 59.2029 117.592 49.9318 60.1479 118.455 49.6629 
72.3556 118.756 48.7875 73.2974 118.236 49.6082 74.2651 117.705 50.4191 
60.9658 119.155 49.0173 62.2932 119.571 49.2051 63.9196 119.726 49.6871 
65.7229 119.714 50.0221 67.7273 119.745 49.7755 69.3063 119.648 49.6889 
71.0773 119.326 49.5807 72.2735 119.059 49.4775 60.7114 105.563 51.7399 
60.2581 104.005 52.865 59.444 104.9 52.2881 61.4024 104.15 52.8825 
57.1642 107.006 51.4852 56.8613 105.53 52.6237 56.0212 106.614 52.308 
59.173 106.242 51.4586 58.1439 105.311 52.3211 60.9619 106.544 51.0257 
62.2655 105.257 52.1045 62.8337 106.343 51.2535 64.4205 106.494 51.3079 
63.8179 105.332 52.3186 65.8415 106.839 51.2772 65.252 105.602 52.5342 
66.9151 107.043 51.3623 66.6719 106.255 52.287 67.7881 107.06 51.8823 
55.7802 107.834 51.7873 55.1298 106.889 52.9598 54.6542 107.974 53.1416 
69.925 108.839 51.2128 68.6708 107.8 51.6344 70.9151 108.934 51.7881 
70.2865 108.31 52.3069 71.4641 109.024 52.5171 55.2605 109.008 51.6271 
54.7236 109.613 52.7576 73.0212 110.865 51.7601 72.2433 109.927 52.1475 
73.3596 111.04 52.768 54.9129 111.001 53.1094 73.882 112.086 53.1274 
55.532 112.334 52.2675 56.2311 113.318 52.2966 74.5109 112.949 52.1291 
75.2679 113.931 52.2586 56.9444 114.319 51.4549 57.9275 115.548 51.9271 
75.751 114.829 51.5579 76.1316 115.813 52.0619 58.9798 116.55 51.6956 
59.0559 117.237 50.7989 59.8688 117.4 51.3778 75.4985 117.088 51.0669 
75.9198 116.656 51.8646 60.5847 118.052 50.9577 61.5939 118.907 50.3278 
62.2535 118.228 51.5809 63.0861 119.147 50.4847 63.7962 118.386 51.7134 
64.6936 119.202 50.7067 65.7254 118.487 51.786 66.6566 119.146 50.8921 
67.4454 118.407 51.9705 68.4938 119.169 50.7952 69.4834 118.409 51.9862 
70.2018 119.031 50.8729 70.9673 118.481 51.9835 71.5442 119.067 50.7772 
72.2008 118.521 51.8921 73.5412 118.563 50.5396 74.0285 117.936 51.8728 
75.2133 117.368 51.7322 72.4614 119.094 50.414 57.7067 102.857 54.0209 
57.3523 101.958 54.5827 56.4919 102.408 54.5838 59.2663 102.622 53.9698 
58.3277 101.846 54.5985 60.9683 102.832 53.8386 60.0729 101.672 54.7155 
62.4871 102.937 54.0768 61.7605 101.481 55.1932 63.1539 102.149 55.1071 
56.0702 103.883 53.9924 55.169 103.099 54.9474 54.6417 104.227 54.7016 
57.5371 104.303 53.2258 58.9226 103.898 53.1729 62.5528 104.101 53.1482 
64.2129 103.219 54.5791 64.3061 104.274 53.5842 65.6493 104.636 53.8006 
65.5944 103.678 54.9092 66.6304 104.545 54.6614 55.7059 105.269 53.5349 
54.5884 106.284 54.1201 67.0789 105.561 53.8042 69.028 107.255 52.8434 
68.0645 106.324 53.404 69.3874 106.854 54.2468 54.4271 108.049 54.2895 
70.4081 107.968 53.6667 71.4754 108.739 53.8418 54.5489 109.748 53.8653 
72.4703 109.779 53.3037 73.2973 111.298 53.9396 54.9419 110.769 54.5947 
73.801 112.682 54.334 55.7015 112.148 53.8918 56.5023 113.233 53.8053 
74.632 113.362 53.1976 75.2133 114.274 53.3415 57.4923 114.382 53.3429 
58.4318 115.266 53.4482 75.7596 115.09 52.7126 75.814 115.957 52.9652 
59.0838 115.965 52.9387 60.4225 116.56 52.9872 61.303 117.428 52.3051 
61.8739 116.447 53.6001 62.992 117.452 52.7169 63.7002 116.69 53.6489 
64.5267 117.62 52.7138 65.3597 116.824 53.6412 66.4758 117.693 52.7574 
67.3528 116.79 53.7747 68.2836 117.504 53.0139 69.033 116.5 54.1274 
69.6368 117.499 53.1386 70.4477 116.928 53.9151 75.6283 116.859 52.5506 
71.116 117.846 52.9807 72.6715 117.837 52.8891 73.2049 118.522 51.5907 
73.6749 117.506 53.0932 74.7491 117.341 52.8338 56.8662 101.227 55.3841 
56.3684 100.096 56.5401 55.8464 100.952 56.0093 58.7563 100.798 55.4536 
57.8085 99.8904 56.2939 60.1998 100.564 55.6693 59.5372 99.6279 56.459 
61.4276 100.465 55.9193 61.1185 99.4396 56.8741 62.3655 100.457 56.3415 
55.6969 101.979 55.3327 55.0068 101.397 56.2159 54.376 102.366 56.1234 
64.6276 102.466 55.5911 63.3454 101.309 56.117 65.4706 102.615 55.8641 
65.1997 101.77 56.9951 66.1245 102.93 56.3125 54.0911 104.062 55.4848 
67.6273 105.08 55.2899 66.9822 104.15 55.7851 68.117 105.283 56.3926 
53.8481 105.544 55.383 53.4398 104.1 56.6926 53.2753 105.506 56.5946 
68.5784 106.118 54.9037 69.6077 106.795 55.1751 53.9039 106.833 55.3807 
53.5182 106.664 56.6725 70.2498 107.682 55.1747 71.0676 108.901 55.3773 
54.0888 108.009 55.9723 54.5879 109.468 55.3202 72.3828 109.956 54.1912 
71.861 110.045 55.042 55.2932 110.5 55.6566 55.2967 111.361 54.838 
55.9906 111.685 55.2917 72.6859 111.217 54.9458 73.0607 112.41 55.0684 
56.865 112.684 55.0416 57.1101 113.668 54.2994 57.7868 113.654 54.8748 
74.3326 114.103 54.2932 73.3363 113.729 55.1455 58.5891 114.41 54.5623 
59.8204 115.463 54.1118 60.2253 114.408 55.3557 61.0679 115.688 54.264 
61.5713 114.581 55.484 62.6683 115.603 54.654 63.3729 114.605 55.6747 
64.472 115.649 54.7598 65.2721 114.681 55.6755 66.0422 115.77 54.7149 
66.8662 114.638 55.7104 67.6976 115.817 54.7128 68.4535 114.548 55.7643 
68.7888 115.509 54.9848 69.9131 115.131 55.2738 74.0045 115.283 54.471 
73.0299 115.256 54.9723 75.2526 115.252 53.6282 70.8585 116.095 54.6858 
71.7728 116.889 54.0841 72.0759 115.666 55.0236 72.9585 116.508 54.2342 
74.1194 116.488 53.9256 75.0359 116.111 53.6843 55.2225 98.9512 58.1259 
55.2296 97.4901 59.2593 54.5316 98.5039 59.2016 56.4917 99.0528 57.3976 
56.1072 97.8379 58.4748 58.2195 98.7857 57.2214 57.6792 97.6094 58.1937 
59.9288 98.5874 57.3533 59.0328 97.4424 58.2164 60.9785 98.4115 57.6075 
60.6639 97.3134 58.4613 61.8715 98.0166 58.1703 54.9566 100.253 57.3775 
54.2277 99.8063 58.5594 63.9679 100.421 57.3148 62.9009 99.2901 57.6921 
64.9547 100.691 57.8213 64.4276 99.4965 58.5532 65.8283 101.279 58.6481 
54.1515 101.154 57.4558 53.5017 101.08 58.6963 53.2674 102.433 58.2452 
[...]
POINT_DATA 982
SCALARS Scalars float
LOOKUP_TABLE default
40 40 40 40 40 40 40 40 40 
40 40 40 40 40 40 40 40 40 
40 40 40 40 40 40 40 40 40 
40 40 40 40 40 40 40 40 40 
40 40 40 40 40 40 40 40 40 
40 40 40 40 40 40 40 40 40 
40 40 40 40 40 40 40 40 40 
40 40 40 40 40 40 40 40 40 
40 40 40 40 40 40 40 40 40 
40 40 40 40 40 40 40 40 40 
40 40 40 40 40 40 40 40 40 
40 40 40 40 40 40 40 40 40 
40 40 40 40 40 40 40 40 40 
40 40 40 40 40 40 40 40 40 
40 40 40 40 40 40 40 40 40 
40 40 40 40 40 40 40 40 40 
40 40 40 40 40 40 40 40 40 
40 40 40 40 40 40 40 40 40 
40 40 40 40 40 40 40 40 40 
40 40 40 40 40 40 40 40 40 
40 40 40 40 40 40 40 40 40 
40 40 40 40 40 40 40 40 40 
40 40 40 40 40 40 40 40 40 
40 40 40 40 40 40 40 40 40 
40 40 40 40 40 40 40 40 40 
40 40 40 40 40 40 40 40 40 
40 40 40 40 40 40 40 40 40 
40 40 40 40 40 40 40 40 40 
40 40 40 40 40 40 40 40 40 
40 40 40 40 40 40 40 40 40 
40 40 40 40 40 40 40 40 40 
40 40 40 40 40 40 40 40 40 
40 40 40 40 40 40 40 40 40 
40 40 40 40 40 40 40 40 40 
40 40 40 40 40 40 40 40 40 
40 40 40 40 40 40 40 40 40 
40 40 40 40 40 40 40 40 40 
40 40 40 40 40 40 40 40 40 
40 40 40 40 40 40 40 40 40 
40 40 40 40 40 40 40 40 40 
40 40 40 40 40 40 40 40 40 
40 40 40 40 40 40 40 40 40 
40 40 40 40 40 40 40 40 40 
40 40 40 40 40 40 40 40 40 
40 40 40 40 40 40 40 40 40 
40 40 40 40 40 40 40 40 40 
40 40 40 40 40 40 40 40 40 
40 40 40 40 40 40 40 40 40 
40 40 40 40 40 40 40 40 40 
40 40 40 40 40 40 40 40 40 
40 40 40 40 40 40 40 40 40 
40 40 40 40 40 40 40 40 40 
40 40 40 40 40 40 40 40 40 
40 40 40 40 40 40 40 40 40 
40 40 40 40 40 40 40 40 40 
40 40 40 40 40 40 40 40 40 
40 40 40 40 40 40 40 40 40 
40 40 40 40 40 40 40 40 40 
40 40 40 40 40 40 40 40 40 
40 40 40 40 40 40 40 40 40 
40 40 40 40 40 40 40 40 40 
40 40 40 40 40 40 40 40 40 
40 40 40 40 40 40 40 40 40 
40 40 40 40 40 40 40 40 40 
40 40 40 40 40 40 40 40 40 
40 40 40 40 40 40 40 40 40 
40 40 40 40 40 40 40 40 40 
40 40 40 40 40 40 40 40 40 
40 40 40 40 40 40 40 40 40 
40 40 40 40 40 40 40 40 40 
40 40 40 40 40 40 40 40 40 
40 40 40 40 40 40 40 40 40 
40 40 40 40 40 40 40 40 40 
40 40 40 40 40 40 40 40 40 
40 40 40 40 40 40 40 40 40 
40 40 40 40 40 40 40 40 40 
40 40 40 40 40 40 40 40 40 
40 40 40 40 40 40 40 40 40 
40 40 40 40 40 40 40 40 40 
40 40 40 40 40 40 40 40 40 
40 40 40 40 40 40 40 40 40 
40 40 40 40 40 40 40 40 40 
40 40 40 40 40 40 40 40 40 
40 40 40 40 40 40 40 40 40 
40 40 40 40 40 40 40 40 40 
40 40 40 40 40 40 40 40 40 
40 40 40 40 40 40 40 40 40 
40 40 40 40 40 40 40 40 40 
40 40 40 40 40 40 40 40 40 
40 40 40 40 40 40 40 40 40 
40 40 40 40 40 40 40 40 40 
40 40 40 40 40 40 40 40 40 
40 40 40 40 40 40 40 40 40 
40 40 40 40 40 40 40 40 40 
40 40 40 40 40 40 40 40 40 
40 40 40 40 40 40 40 40 40 
40 40 40 40 40 40 40 40 40 
40 40 40 40 40 40 40 40 40 
40 40 40 40 40 40 40 40 40 
40 40 40 40 40 40 40 40 40 
40 40 40 40 40 40 40 40 40 
40 40 40 40 40 40 40 40 40 
40 40 40 40 40 40 40 40 40 
40 40 40 40 40 40 40 40 40 
40 40 40 40 40 40 40 40 40 
40 40 40 40 40 40 40 40 40 
40 40 40 40 40 40 40 40 40 
40 40 40 40 40 40 40 40 40 
40 40 40 40 40 40 40 40 40 
40 
