# vtk DataFile Version 3.0
this file was written using fslvtkio
ASCII
DATASET POLYDATA
POINTS 772 float
84.5036 106.303 52.8306
84.0114 105.845 52.9721
83.5771 106.552 52.7426
84.5528 105.889 53.5602
84.2924 107.118 52.5077
83.5833 107.4 52.689
85.042 106.433 53.2811
85.1309 107.14 52.7443
85.4851 107.186 53.3606
84.1795 107.748 52.4931
83.681 108.207 52.8
85.0311 107.758 52.6729
85.5451 108.055 53.3416
84.5135 108.452 52.7615
85.1807 108.348 52.8906
82.3496 105.418 53.3865
81.9262 104.823 53.7982
81.5728 105.564 53.6584
83.196 105.199 53.3624
82.7913 104.746 53.7057
83.8684 105.318 53.4564
83.646 104.781 53.8518
84.3206 105.33 54.1654
82.2726 106.315 53.2629
81.5177 106.626 53.5917
82.9607 106.071 53.1283
84.783 106.16 54.6239
82.1693 107.195 53.3017
81.4725 107.361 53.6558
82.8802 106.889 53.0923
85.1936 106.507 54.0278
85.5705 107.193 54.0811
82.215 108.008 53.317
81.5943 108.271 53.678
83.1208 108.045 53.1035
85.8079 108 54.0771
82.2187 108.798 53.4949
82.3516 109.478 53.6048
83.1112 108.905 53.2086
83.884 108.842 53.1237
85.0905 109.071 53.3016
85.7954 108.56 53.7389
85.773 109.361 53.5639
86.2831 109.014 54.2704
83.1729 109.891 53.3021
82.5561 110.216 53.6555
83.9683 109.815 53.2381
84.5691 109.716 53.2581
85.4922 110.05 53.5467
86.2832 109.741 54.2056
83.1601 110.635 53.5504
83.5703 111.188 53.6934
84.0078 110.687 53.3983
84.7464 110.702 53.5012
85.5267 111.01 54.2802
85.9721 110.537 54.4983
84.2977 111.413 53.724
85.0521 111.566 54.0914
81.1763 104.189 54.38
80.8806 103.536 54.9169
80.4399 104.341 54.6523
81.8981 104.215 54.2838
81.6413 103.611 54.7894
82.4704 103.823 55.0656
81.1482 105.049 54.0825
80.2481 105.354 54.5936
82.928 104.264 54.5882
83.7951 104.731 54.5222
83.3606 104.57 55.3196
80.9087 106.101 54.1048
80.2737 106.355 54.5422
84.1005 105.224 55.0108
84.5599 106.078 55.3211
80.8076 106.886 54.1474
80.158 107.364 54.6717
85.194 106.729 54.5806
84.8691 106.875 55.4738
80.8854 108.12 54.1711
80.3764 108.447 54.5903
85.3628 107.199 54.8686
85.7017 107.732 54.7104
80.9695 109.065 54.2443
80.3376 109.378 54.7229
81.7035 109.047 53.9118
85.8972 108.343 54.8857
86.3628 109.24 54.9304
81.0746 110.079 54.3774
80.4575 109.936 54.6858
81.9499 109.908 53.9948
86.3153 110.009 55.0555
80.6542 110.565 54.8378
81.1034 111.214 54.7722
81.6359 110.809 54.3449
82.6998 110.947 53.9953
85.7051 110.979 55.1776
85.9471 110.333 55.5602
81.9002 111.691 54.3763
81.4568 112.15 54.7596
82.8273 111.776 54.2013
83.6405 111.883 54.1003
84.7216 112.235 54.3986
85.5283 111.834 55.0518
82.0419 112.462 54.5693
82.4394 113.03 54.6714
82.8788 112.433 54.3374
83.7561 112.618 54.3871
84.6822 113.149 55.0458
85.2885 112.472 55.0476
83.1969 113.434 54.7405
83.9522 113.534 54.887
80.5248 100.824 56.0853
80.3285 100.213 55.9416
79.7875 100.578 55.8259
80.5697 100.319 56.5463
80.4826 101.415 55.8484
79.5021 101.519 55.7777
80.7773 101.18 56.7378
80.1645 102.234 55.3905
79.2682 102.357 55.7322
81.0402 101.649 56.2613
81.0011 102.212 55.6911
81.4095 102.421 56.63
79.9064 103.017 55.289
79.1789 103.11 55.5988
80.7035 102.822 55.385
81.5662 103.054 56.3504
79.2383 104.094 55.331
78.7153 103.546 55.8027
78.5614 104.237 55.791
80.1299 103.723 55.0947
81.702 103.244 55.5159
82.3642 103.606 55.6567
79.0053 104.868 55.343
78.3903 105.243 55.9006
79.8318 104.784 54.9926
82.8092 104.122 55.7163
83.4346 104.858 56.0661
78.8437 105.896 55.5021
78.3689 106.188 56.0628
79.6646 105.627 55.0198
84.0115 105.46 55.5941
83.7129 105.503 56.1317
78.8998 106.746 55.6357
79.185 107.48 55.5719
79.5736 106.791 55.0971
84.2116 106.16 55.9614
84.4948 106.967 56.2254
79.7202 107.757 55.1015
79.1605 108.402 55.712
85.4191 107.769 55.4088
84.8002 107.653 56.1549
79.7411 108.892 55.2095
79.3617 109.317 55.6175
85.4729 108.295 55.7694
85.9446 108.831 55.5394
85.4521 109.164 56.3347
79.9161 109.757 55.2081
79.398 109.886 55.6298
85.9151 109.628 55.8333
85.5033 110.235 56.4448
79.6722 110.498 55.6357
80.4016 111.186 55.2615
80.0555 111.556 55.67
85.6854 111.246 55.8892
80.8617 112.138 55.1933
80.4168 112.495 55.5889
85.6658 111.839 56.0332
80.9863 113.008 55.3516
80.4549 113.055 55.6805
81.6678 112.949 55.0708
85.2347 112.921 55.2975
85.5902 112.504 55.8107
80.8238 113.657 55.7837
81.3228 114.114 55.7069
81.718 113.924 55.4092
82.6192 113.7 55.0753
83.4524 114.074 55.2791
84.5316 113.937 55.6041
85.0825 113.353 55.6478
81.7457 114.536 55.7714
82.2271 114.991 55.8304
82.5077 114.542 55.4677
83.2992 114.9 55.6287
84.0043 114.711 55.9213
82.6623 115.463 56.0613
79.9678 99.9077 56.2377
80.0593 99.3541 56.7055
79.4627 99.5323 56.5601
80.3779 99.7855 57.1653
79.2736 100.087 56.3094
78.9745 99.6602 57.1553
78.5815 100.393 56.8021
80.6446 100.369 57.3035
79.0494 101.012 56.1499
78.3558 101.147 56.8241
80.6862 100.915 57.6857
78.7909 101.891 56.2027
78.2161 102.357 56.6875
81.0635 101.837 56.9376
80.7494 101.614 57.819
78.7143 102.68 56.1052
78.16 103.301 56.5509
81.2457 102.347 57.2494
81.517 103.184 57.2822
78.0195 104.284 56.6245
82.1686 103.634 56.3621
81.8335 103.807 57.127
78.024 105.415 56.5702
82.5788 104.369 56.7424
83.0593 104.859 56.5889
82.7751 105.173 57.1039
77.9258 106.359 56.8364
83.3706 105.858 56.7811
82.9375 106.082 57.3001
78.5735 107.191 56.1404
78.0146 107.237 56.8557
83.3382 106.647 57.1093
82.9492 106.626 57.4486
83.8925 106.515 56.6306
78.5982 108.074 56.2592
78.1172 108.531 56.9296
83.0133 107.119 57.6759
84.0856 107.56 56.8774
83.4675 108.001 57.8144
78.7529 108.851 56.1911
78.3414 109.381 56.7484
84.3146 108.463 57.0853
83.9157 108.763 57.7115
84.8438 108.224 56.5018
78.9804 110 56.1718
78.3542 110.32 56.9478
84.4322 109.161 57.35
84.9647 109.406 56.8827
84.7413 109.644 57.3287
79.0599 110.651 56.3214
79.5956 111.22 56.0157
79.1838 111.708 56.5404
85.0125 110.119 57.2182
85.5516 111.017 56.8549
79.73 112.238 56.1617
79.2913 112.586 56.6489
85.6488 112.093 56.9894
79.9416 112.953 56.1779
79.4818 113.445 56.7993
85.6831 112.713 56.6844
80.1555 113.781 56.3982
80.896 114.259 56.1674
80.4374 114.452 56.6268
85.0338 113.845 56.0984
85.4802 113.353 56.5443
81.1285 114.972 56.4968
81.9052 115.255 56.2329
81.3098 115.493 56.7511
83.7672 115.321 56.2469
84.4572 114.838 56.6315
84.9418 114.285 56.6004
82.1115 115.812 56.5512
82.9765 116.113 56.5173
82.4159 116.426 56.9609
83.721 116.151 56.6667
84.404 115.539 56.9491
83.0897 116.672 57.1231
83.972 116.418 57.2645
79.6194 99.3004 57.2033
78.9604 99.6964 57.8389
78.3478 100.368 57.4636
79.6697 99.5714 57.746
80.365 100.163 57.9858
77.9523 101.024 57.3925
77.8794 100.62 58.2195
77.5277 101.503 57.8897
80.2991 101.084 58.4284
77.8314 101.987 57.2967
77.4729 102.358 57.9452
80.4041 101.847 58.4873
77.8329 102.869 57.1588
77.4266 103.193 58.0809
81.0285 102.562 57.8386
80.721 102.456 58.2529
77.695 103.757 57.1963
77.2825 104.077 57.7935
80.9277 103.226 58.302
81.5632 103.852 57.9581
77.5692 104.702 57.2499
77.1867 105.041 57.7174
82.3653 104.639 57.2929
81.8309 104.779 57.9688
77.5132 105.667 57.2669
77.1539 106.136 57.7432
82.3983 105.405 57.6558
81.9467 105.624 58.1346
77.5689 106.833 57.2777
76.9872 107.33 58.1107
82.5383 106.451 57.8428
82.0224 106.352 58.2338
77.542 107.8 57.4512
77.2046 108.205 58.036
82.2105 106.921 58.2891
82.7902 107.48 58.0945
82.4562 107.52 58.4766
77.7004 108.652 57.5126
78.0233 109.376 57.3265
82.9261 108.112 58.4292
83.4995 108.69 58.2739
78.0274 110.329 57.5343
84.3872 109.653 57.7343
83.9511 109.429 58.0977
78.6649 111.235 56.9822
78.1833 111.382 57.519
84.2658 110.377 58.341
85.0639 110.844 57.6405
84.768 111.224 58.2326
78.6387 112.136 57.2034
78.2552 112.397 57.6528
85.3095 111.491 57.5849
84.9219 111.788 58.191
78.9122 113.274 57.2508
78.1256 113.318 58.0232
85.1506 112.289 58.0414
85.5298 112.966 57.3023
78.9225 114.165 57.4985
78.4594 114.251 57.9801
79.7015 114.16 57.063
85.3864 113.722 57.1758
84.8954 114.298 57.8196
85.2281 113.592 57.9483
78.9924 114.779 57.7801
79.3031 115.287 57.8275
79.7633 115.225 57.4783
80.5581 115.316 57.1181
84.7399 115.079 57.749
79.5658 115.748 57.9843
79.9862 116.474 58.1044
80.3497 115.99 57.5605
81.3572 116.124 57.173
84.5262 115.935 57.8947
80.5659 116.755 57.8958
81.1106 117.358 58.0676
81.3639 116.872 57.606
82.2084 117.042 57.482
83.2341 117.103 57.8106
83.9986 116.601 58.0054
81.9719 117.623 58.0497
82.7058 117.475 58.0588
78.7987 100.179 58.4097
79.5887 99.9312 58.3267
77.9304 100.694 58.9155
77.2935 101.413 58.6411
78.7909 100.505 58.9324
79.7171 100.703 58.7503
79.32 101.149 59.2307
77.0456 102.243 58.5333
76.696 101.887 58.971
76.4383 102.666 58.9593
79.7714 101.687 58.9285
79.1992 101.9 59.378
77.0526 103.023 58.6671
76.1986 103.426 59.0208
77.6485 102.645 59.0565
77.7598 102.958 59.568
78.3019 102.891 58.8976
78.3485 102.352 59.3719
79.1879 102.575 59.0689
80.1535 102.774 58.8196
76.8745 103.702 58.446
76.2219 104.262 58.8167
77.6661 103.374 58.7154
79.0219 103.215 59.0696
78.4071 103.553 59.2564
79.9219 103.429 59.1579
80.6023 103.482 58.8521
81.13 103.889 58.5852
80.7026 104.41 59.1118
76.6709 104.708 58.2785
76.1852 105.076 58.7521
78.9655 103.963 59.3575
78.6554 104.179 59.6883
79.5772 104.102 59.4856
81.3334 104.543 58.5753
80.7789 105.107 59.1475
76.6211 105.494 58.2667
76.1427 105.854 58.7942
79.0895 104.715 59.8311
81.5015 105.299 58.5467
81.0217 105.885 59.088
76.6108 106.56 58.3259
76.1952 106.551 58.7667
81.5541 106.263 58.7402
81.0358 106.424 59.1754
76.3853 107.289 58.7328
76.7763 107.999 58.5997
81.2274 107.028 59.3035
82.0595 107.532 58.8368
81.7352 107.861 59.3908
77.5026 109.002 57.9545
76.9979 109.205 58.6282
82.4622 108.366 59.0706
83.1406 108.856 58.7365
82.7609 109.151 59.2609
77.5012 109.788 58.1197
77.0656 110.158 58.6653
83.5917 109.746 58.7186
83.0331 109.703 59.1964
77.6436 110.782 58.0748
77.0664 111.143 58.7572
83.4221 110.342 59.2064
84.1173 110.891 58.7824
83.8419 111.308 59.3078
77.7637 111.729 58.069
77.1348 111.958 58.7568
84.5559 111.939 58.7216
84.2041 112.382 59.3874
77.6438 112.7 58.3262
77.1249 112.651 58.8737
84.8124 112.605 58.7049
85.2836 112.962 58.2584
84.8617 113.668 58.5852
[...]
POINT_DATA 772
SCALARS Scalars float
LOOKUP_TABLE default
0.5
0.5
0.5
0.5
0.5
0.5
0.5
0.5
0.5
0.5
0.5
0.5
0.5
0.5
0.5
0.5
0.5
0.5
0.5
0.5
0.5
0.5
0.5
0.5
0.5
0.5
0.5
0.5
0.5
0.5
0.5
0.5
0.5
0.5
0.5
0.5
0.5
0.5
0.5
0.5
0.5
0.5
0.5
0.5
0.5
0.5
0.5
0.5
0.5
0.5
0.5
0.5
0.5
0.5
0.5
0.5
0.5
0.5
0.5
0.5
0.5
0.5
0.5
0.5
0.5
0.5
0.5
0.5
0.5
0.5
0.5
0.5
0.5
0.5
0.5
0.5
0.5
0.5
0.5
0.5
0.5
0.5
0.5
0.5
0.5
0.5
0.5
0.5
0.5
0.5
0.5
0.5
0.5
0.5
0.5
0.5
0.5
0.5
0.5
0.5
0.5
0.5
0.5
0.5
0.5
0.5
0.5
0.5
0.5
0.5
0.5
0.5
0.5
0.5
0.5
0.5
0.5
0.5
0.5
0.5
0.5
0.5
0.5
0.5
0.5
0.5
0.5
0.5
0.5
0.5
0.5
0.5
0.5
0.5
0.5
0.5
0.5
0.5
0.5
0.5
0.5
0.5
0.5
0.5
0.5
0.5
0.5
0.5
0.5
0.5
0.5
0.5
0.5
0.5
0.5
0.5
0.5
0.5
0.5
0.5
0.5
0.5
0.5
0.5
0.5
0.5
0.5
0.5
0.5
0.5
0.5
0.5
0.5
0.5
0.5
0.5
0.5
0.5
0.5
0.5
0.5
0.5
0.5
0.5
0.5
0.5
0.5
0.5
0.5
0.5
0.5
0.5
0.5
0.5
0.5
0.5
0.5
0.5
0.5
0.5
0.5
0.5
0.5
0.5
0.5
0.5
0.5
0.5
0.5
0.5
0.5
0.5
0.5
0.5
0.5
0.5
0.5
0.5
0.5
0.5
0.5
0.5
0.5
0.5
0.5
0.5
0.5
0.5
0.5
0.5
0.5
0.5
0.5
0.5
0.5
0.5
0.5
0.5
0.5
0.5
0.5
0.5
0.5
0.5
0.5
0.5
0.5
0.5
0.5
0.5
0.5
0.5
0.5
0.5
0.5
0.5
0.5
0.5
0.5
0.5
0.5
0.5
0.5
0.5
0.5
0.5
0.5
0.5
0.5
0.5
0.5
0.5
0.5
0.5
0.5
0.5
0.5
0.5
0.5
0.5
0.5
0.5
0.5
0.5
0.5
0.5
0.5
0.5
0.5
0.5
0.5
0.5
0.5
0.5
0.5
0.5
0.5
0.5
0.5
0.5
0.5
0.5
0.5
0.5
0.5
0.5
0.5
0.5
0.5
0.5
0.5
0.5
0.5
0.5
0.5
0.5
0.5
0.5
0.5
0.5
0.5
0.5
0.5
0.5
0.5
0.5
0.5
0.5
0.5
0.5
0.5
0.5
0.5
0.5
0.5
0.5
0.5
0.5
0.5
0.5
0.5
0.5
0.5
0.5
0.5
0.5
0.5
0.5
0.5
0.5
0.5
0.5
0.5
0.5
0.5
0.5
0.5
0.5
0.5
0.5
0.5
0.5
0.5
0.5
0.5
0.5
0.5
0.5
0.5
0.5
0.5
0.5
0.5
0.5
0.5
0.5
0.5
0.5
0.5
0.5
0.5
0.5
0.5
0.5
0.5
0.5
0.5
0.5
0.5
0.5
0.5
0.5
0.5
0.5
0.5
0.5
0.5
0.5
0.5
0.5
0.5
0.5
0.5
0.5
0.5
0.5
0.5
0.5
0.5
0.5
0.5
0.5
0.5
0.5
0.5
0.5
0.5
0.5
0.5
0.5
0.5
0.5
0.5
0.5
0.5
0.5
0.5
0.5
0.5
0.5
0.5
0.5
0.5
0.5
0.5
0.5
0.5
0.5
0.5
0.5
0.5
0.5
0.5
0.5
0.5
0.5
0.5
0.5
0.5
0.5
0.5
0.5
0.5
0.5
0.5
0.5
0.5
0.5
0.5
0.5
0.5
0.5
0.5
0.5
0.5
0.5
0.5
0.5
0.5
0.5
0.5
0.5
0.5
0.5
0.5
0.5
0.5
0.5
0.5
0.5
0.5
0.5
0.5
0.5
0.5
0.5
0.5
0.5
0.5
0.5
0.5
0.5
0.5
0.5
0.5
0.5
0.5
0.5
0.5
0.5
0.5
0.5
0.5
0.5
0.5
0.5
0.5
0.5
0.5
0.5
0.5
0.5
0.5
0.5
0.5
0.5
0.5
0.5
0.5
0.5
0.5
0.5
0.5
0.5
0.5
0.5
0.5
0.5
0.5
0.5
0.5
0.5
0.5
0.5
0.5
0.5
0.5
0.5
0.5
0.5
0.5
0.5
0.5
0.5
0.5
0.5
0.5
0.5
0.5
0.5
0.5
0.5
0.5
0.5
0.5
0.5
0.5
0.5
0.5
0.5
0.5
0.5
0.5
0.5
0.5
0.5
0.5
0.5
0.5
0.5
0.5
0.5
0.5
0.5
0.5
0.5
0.5
0.5
0.5
0.5
0.5
0.5
0.5
0.5
0.5
0.5
0.5
0.5
0.5
0.5
0.5
0.5
0.5
0.5
0.5
0.5
0.5
0.5
0.5
0.5
0.5
0.5
0.5
0.5
0.5
0.5
0.5
0.5
0.5
0.5
0.5
0.5
0.5
0.5
0.5
0.5
0.5
0.5
0.5
0.5
0.5
0.5
0.5
0.5
0.5
0.5
0.5
0.5
0.5
0.5
0.5
0.5
0.5
0.5
0.5
0.5
0.5
0.5
0.5
0.5
0.5
0.5
0.5
0.5
0.5
0.5
0.5
0.5
0.5
0.5
0.5
0.5
0.5
0.5
0.5
0.5
0.5
0.5
0.5
0.5
0.5
0.5
0.5
0.5
0.5
0.5
0.5
0.5
0.5
0.5
0.5
0.5
0.5
0.5
0.5
0.5
0.5
0.5
0.5
0.5
0.5
0.5
0.5
0.5
0.5
0.5
0.5
0.5
0.5
0.5
0.5
0.5
0.5
0.5
0.5
0.5
0.5
0.5
0.5
0.5
0.5
0.5
0.5
0.5
0.5
0.5
0.5
0.5
0.5
0.5
0.5
0.5
0.5
0.5
0.5
0.5
0.5
0.5
0.5
0.5
0.5
0.5
0.5
0.5
0.5
0.5
0.5
0.5
0.5
0.5
0.5
0.5
0.5
0.5
0.5
0.5
0.5
0.5
0.5
0.5
0.5
0.5
0.5
0.5
0.5
0.5
0.5
0.5
0.5
0.5
0.5
0.5
0.5
0.5
0.5
0.5
0.5
0.5
0.5
0.5
0.5
0.5
0.5
0.5
0.5
0.5
0.5
0.5
0.5
0.5
0.5
0.5
