# vtk DataFile Version 3.0
this file was written using fslvtkio
ASCII
DATASET POLYDATA
POINTS 502 float
65.0268 124.755 42.6462
64.3051 123.733 42.9607
63.3104 125.121 42.9912
66.534 125.232 42.9569
65.8453 123.383 43.1039
67.1466 124.067 43.2983
64.5459 126.071 42.7585
63.3807 126.788 43.2772
65.9946 126.566 43.0969
67.5896 126.172 43.7164
64.5967 127.515 43.4732
66.5624 127.567 43.958
63.0617 122.273 44.1099
62.0542 121.406 45.2617
61.6073 122.74 44.3368
64.9025 122.344 43.7102
63.9371 121.25 44.8498
66.8722 122.365 43.8204
66.037 121.388 44.6089
68.6809 122.811 44.1583
68.0548 121.415 44.9521
69.2385 121.761 45.0543
61.5469 124.321 43.7849
60.6606 123.353 44.315
59.9066 124.066 44.7054
62.9158 123.795 43.4362
68.4185 124.152 43.7012
70.2286 122.815 44.8973
69.8412 124.076 44.2768
71.1358 123.999 45.1685
60.5531 125.62 44.1969
59.3507 125.307 44.9458
62.1398 125.705 43.6117
68.6088 125.682 43.7861
69.5523 125.524 44.1816
71.0499 125.754 45.2731
59.7787 126.437 44.9196
60.5793 127.573 44.8114
61.4813 127.191 44.2244
62.9711 127.903 44.0554
64.9388 128.432 44.2386
67.4007 128.154 44.8297
68.4995 127.106 44.4541
70.0916 126.872 45.0478
61.6254 128.609 45.0989
63.461 128.935 44.793
65.4139 129.196 45.0119
60.2312 122.681 45.2017
60.3713 121.375 46.284
59.2908 122.484 46.0114
61.7111 120.487 46.614
63.286 120.551 45.9492
65.2378 120.536 45.7127
67.3731 120.646 45.7362
70.0121 121.583 45.5188
69.3444 120.728 46.215
70.8362 121.78 46.0638
58.9078 123.742 45.7254
58.2035 123.082 46.9588
57.7588 124.254 47.3603
72.0538 124.572 45.9046
71.9376 122.915 46.1903
72.8023 124.297 46.7412
58.4665 125.262 45.9921
57.7602 126.097 47.559
72.1732 125.83 46.2014
72.9831 126.095 47.4809
58.5728 126.692 46.328
59.9125 127.879 45.6609
58.9995 127.808 46.4445
68.5404 128.159 45.1904
69.5882 128.177 45.8473
70.9882 127.317 46.1598
71.9421 126.899 46.6989
60.032 128.803 46.4332
61.5158 129.695 46.3608
61.0487 130.14 47.5077
62.9245 129.936 46.1013
64.7989 129.927 45.8304
66.5785 129.544 45.8483
68.4913 129.044 46.332
70.1109 128.707 47.1096
62.5452 130.573 47.4962
64.1305 130.586 47.1383
65.7607 130.354 46.8339
62.9991 119.52 47.5069
62.1581 118.913 49.1134
61.6659 119.666 47.8314
64.5579 119.748 46.8446
63.8195 118.944 48.3444
66.4543 119.668 46.9033
65.7207 118.966 48.0005
68.3206 119.884 46.8727
67.4663 118.986 48.0326
69.4535 119.875 47.0998
69.4182 119.201 48.08
70.6399 119.909 47.7133
58.9466 121.892 47.0258
59.019 121.245 47.9029
57.8379 122.611 48.2591
60.2297 120.554 47.5779
71.7786 121.699 46.7377
71.3746 120.838 47.2448
72.6382 121.683 47.5851
57.3494 124.112 48.6445
73.5873 124.607 47.5422
73.2901 122.968 47.4673
74.3497 123.938 48.5688
57.2622 125.64 48.9661
73.7703 125.968 48.1292
74.2453 125.374 48.6481
58.2833 127.619 47.5849
57.6057 127.392 49.0015
71.4494 128.145 47.6005
72.5858 127.659 48.6144
73.5516 126.953 49.4384
58.5885 128.688 48.2159
59.7365 129.587 47.7851
59.3668 129.883 49.0614
67.2668 130.053 46.9575
68.6824 129.733 47.5613
69.974 129.3 48.2577
71.4875 128.72 49.0697
60.9045 130.658 49.2126
62.6917 130.996 49.0604
64.0386 130.987 48.5763
65.6852 130.914 48.503
67.221 130.665 48.4036
59.3012 120.225 49.0691
58.661 120.069 50.4802
58.0949 121.172 49.4929
60.6119 119.557 48.9218
60.0937 119.192 50.31
61.4516 118.57 50.4836
63.3531 118.358 49.741
65.2169 118.295 49.4247
67.0205 118.409 49.1235
69.128 118.634 49.0557
72.4236 120.293 48.5636
71.132 119.064 49.0537
73.7237 120.658 49.1137
73.0337 118.985 49.8794
74.5009 119.87 49.9497
57.2977 122.733 49.9659
73.6344 121.969 48.4203
75.117 121.152 49.7226
74.8828 122.233 49.3474
76.0447 122.259 50.2343
57.023 124.047 50.3517
75.0768 123.854 49.4144
76.1326 123.788 50.7627
57.0309 125.812 50.4398
74.4434 125.774 49.7783
75.5316 125.011 50.6308
57.2305 127.217 50.8628
72.6415 128.16 50.3377
73.7874 127.144 51.2068
58.2958 128.97 49.5052
57.8555 128.726 50.9891
68.7044 130.305 48.8691
69.918 129.952 49.9232
71.3807 129.114 50.6976
59.4058 130.167 50.4411
60.7004 130.781 50.7335
62.3794 131.119 50.5201
63.7858 131.207 50.4391
65.3369 131.152 50.1246
66.9569 130.949 49.8354
68.4395 130.631 50.2195
62.9376 117.664 51.1428
62.3421 117.166 52.4341
61.2864 118.027 51.6305
64.7889 117.681 50.575
64.0343 116.985 51.9327
66.4846 117.717 50.3463
66.0598 116.963 51.5538
68.6051 117.884 50.1796
67.8887 117.071 51.3019
70.4437 118.208 50.0315
69.5133 117.295 51.0927
72.052 117.97 50.669
71.1285 117.117 51.5573
73.0615 118.065 50.7669
72.9458 117.191 51.8513
73.9705 118.043 51.2351
58.1601 120.226 51.8977
57.6425 121.367 50.9159
59.3881 119.079 51.9751
75.9323 120.598 50.6421
74.6357 118.999 50.7246
77.0364 120.477 51.5985
76.1061 119.379 51.491
77.3298 119.632 52.5563
57.1263 122.755 51.867
77.0796 121.917 51.3096
77.8122 121.048 52.5631
56.9416 124.181 52.0442
77.0619 123.182 51.5928
77.6823 122.324 52.5962
56.9476 125.875 52.1693
74.9708 126.146 51.3049
75.9828 125.376 52.5039
76.6982 124.295 52.3511
57.1962 127.303 52.3667
72.5503 128.318 51.8462
73.3701 127.605 52.8817
74.629 126.707 52.7436
57.781 128.813 52.7336
69.8583 130.097 51.3632
71.0838 129.186 52.6837
58.88 129.975 51.8707
60.3043 130.681 52.1176
62.0155 131.092 51.9848
63.5405 131.185 51.9105
65.1611 131.159 51.6949
66.4049 131.052 51.3521
68.1167 130.702 51.5835
72.1951 116.316 52.6642
71.5213 115.57 53.5097
70.6806 116.246 52.6409
73.2325 116.223 52.98
73.3397 115.542 54.1169
74.1594 116.187 53.6794
60.3581 118.007 52.7975
60.6691 117.355 53.7588
59.2177 118.665 53.7215
62.1283 116.589 53.7573
63.6563 116.408 53.1917
65.4154 116.37 52.7699
67.4401 116.201 52.7492
68.9631 116.334 52.521
75.2608 118.041 52.1084
74.623 117.121 52.8387
76.5037 118.616 52.5426
76.0562 117.729 53.3457
77.3262 118.643 53.9647
58.4201 119.803 53.4687
57.5414 121.415 53.1053
77.9474 120.12 54.0209
57.1926 122.889 53.5028
78.0105 121.641 54.0863
56.9806 124.494 53.3896
77.4081 123.351 53.4904
76.5188 124.506 54.2807
77.2503 123.069 54.7419
57.047 125.994 53.6376
75.6881 125.684 54.1001
57.3924 127.687 53.8652
72.0227 128.497 53.6045
72.9771 127.478 54.7976
74.1752 126.754 54.5732
57.9677 128.685 54.4716
69.5015 130.039 52.5807
68.0129 130.5 53.0825
69.1235 129.655 54.1848
70.5481 129.023 54.2585
58.6086 129.69 53.5438
60.0614 130.506 53.5498
61.6261 130.908 53.4688
63.1308 131.039 53.4116
65.0112 130.919 53.4408
66.4714 130.828 53.0054
69.8943 114.462 54.7577
69.8891 113.663 55.5734
68.6789 114.053 55.4231
71.4475 114.692 54.5173
71.1061 113.785 55.6146
72.9163 114.75 54.7793
72.5542 114.149 55.5211
74.0936 114.916 55.5888
61.3862 116.302 54.9031
60.5896 116.411 56.1624
59.9022 117.369 55.149
62.9112 115.79 54.6969
62.0811 115.366 56.096
64.6303 115.628 54.2381
63.6552 114.983 55.5936
66.399 115.516 53.9906
65.4565 114.812 55.1877
68.2579 115.342 53.891
67.1146 114.721 54.896
69.7363 115.471 53.6626
75.5349 116.632 54.7327
74.9844 115.761 55.6367
76.0178 116.749 56.5111
59.1711 118.63 55.4264
76.4797 117.59 54.622
77.4553 118.839 55.3017
57.8845 121.218 54.5664
58.7204 119.87 55.3036
77.8764 120.341 55.2957
57.6492 122.472 55.0516
58.5387 121.504 56.4257
77.6281 121.666 55.431
76.82 122.719 56.1489
77.1993 121.042 56.5809
58.0885 122.859 56.2713
57.2915 124.326 54.9961
76.2317 124.189 55.8045
57.3635 126.26 55.0974
75.3631 125.661 55.1782
74.3362 126.138 55.9394
75.4347 125.133 56.108
57.8383 127.515 55.6037
71.7258 128.153 55.0813
70.4051 128.525 55.7259
71.5979 127.336 56.6728
73.115 126.693 56.3594
58.8821 128.437 56.4083
59.0278 129.561 55.0772
59.8182 129.281 56.4463
66.1261 130.34 54.6755
64.7153 130.561 54.9319
65.5338 129.691 56.3262
67.4123 129.368 56.0371
67.4363 130.184 54.4042
68.8948 129.004 55.8616
60.1516 130.23 55.0255
61.5445 130.603 54.9028
63.2936 130.74 54.8156
69.8497 113.113 56.51
69.7379 112.346 58.1161
68.6744 112.874 57.092
71.8789 113.251 56.8779
71.1882 112.696 57.6553
72.8486 113.433 58.333
63.0672 114.382 57.1132
62.7316 114.164 58.5418
61.6356 115.334 57.7903
64.4436 114.094 56.6898
63.9298 113.571 58.1667
66.222 113.998 56.1654
65.5137 113.344 57.401
68.0023 113.675 56.1258
67.0105 113.054 57.3358
73.2563 113.878 56.8899
74.3054 114.552 56.8943
60.6453 116.422 57.5011
59.7883 117.538 56.6548
75.155 115.61 57.2943
75.9565 117.198 57.8757
59.3091 119.016 57.1218
76.8487 118.022 56.2173
76.3404 118.75 57.7847
59.1885 120.315 57.3832
77.1665 119.711 56.8284
76.3991 120.618 57.9001
59.1703 121.778 57.8868
76.1607 122.624 57.4478
57.8636 124.225 56.4716
58.8062 123.08 57.5296
75.4025 124.321 56.9997
74.8653 123.803 58.1297
75.5945 123.186 57.9361
58.6478 124.76 57.6379
57.8869 125.542 56.4971
74.2571 125.334 57.2078
73.1289 125.502 58.0784
74.0662 124.71 58.175
58.2572 126.762 56.8555
58.3995 127.705 56.7462
59.4566 127.675 57.596
68.6532 128.263 57.1921
67.2602 128.601 57.4401
68.2466 127.312 58.6446
70.1093 126.924 58.2744
70.0717 127.952 56.9227
71.8765 126.607 57.6878
60.5424 128.526 57.6842
61.1557 129.893 56.3657
62.0465 129.166 57.539
62.6515 130.076 56.3697
63.977 129.041 57.7875
64.1615 129.975 56.4196
65.7047 128.998 57.4965
65.2106 112.839 58.892
65.2587 112.792 60.3272
63.8317 113.557 59.8901
66.6623 112.562 58.6886
66.7811 112.409 60.1515
68.1461 112.465 58.2553
68.511 112.28 59.7619
70.055 112.332 59.486
71.2503 112.531 58.8781
72.2536 113.39 59.5748
62.8847 114.413 60.003
61.7175 115.287 59.0685
74.0174 114.477 58.2284
73.2383 114.444 59.4612
60.1236 117.711 58.2291
61.0911 116.754 59.325
74.3967 115.696 59.2076
75.2266 116.683 58.7849
74.4305 117.175 60.0524
59.9044 119.372 58.5461
60.8492 118.367 59.651
75.4589 118.393 59.1425
74.6027 119.034 60.1574
60.0213 120.687 58.8635
61.0393 119.996 60.009
75.5594 119.995 59.0586
74.5564 120.772 60.0206
60.0605 122.596 59.1
61.0586 121.759 59.9943
75.58 121.842 58.6278
74.3659 122.197 59.6834
59.8571 124.157 58.8644
61.1728 123.577 59.9755
73.8566 123.916 58.9657
72.7281 124.07 59.7801
73.2942 122.712 60.2443
59.0237 126.061 57.9158
60.2492 125.655 58.9973
61.2263 124.89 59.797
71.0438 126.003 58.9418
69.4338 125.602 59.944
70.4632 125.159 60.0305
71.384 124.539 60.1407
72.429 125.2 58.9776
60.6669 127.244 58.6525
61.6277 126.611 59.4746
65.1851 128.236 58.6392
63.6717 128.083 58.9073
64.7817 127.116 59.705
66.5603 126.768 59.7946
66.8844 127.786 58.6747
68.2306 126.459 59.6322
62.1776 128.065 58.6758
65.5465 113.271 61.327
64.2058 113.914 61.139
67.046 113.12 61.4488
66.1972 114.148 62.2477
68.275 112.811 60.9626
70.0002 113.093 60.8689
71.198 113.139 60.2527
62.099 115.961 60.4191
63.4179 115.001 61.1711
67.6487 114.043 62.208
69.0212 113.921 62.0041
70.5776 114.071 61.5014
71.9903 114.372 60.7507
71.0511 115.391 61.8825
61.8961 117.277 60.6249
63.1813 116.423 61.6142
72.4817 116.09 61.2569
70.9848 116.603 62.3121
73.4791 115.918 60.4282
61.8956 119.084 60.8548
63.0037 118.08 61.7326
72.1188 117.416 61.927
73.44 117.711 61.0132
72.2184 118.788 61.9703
62.1665 120.792 60.9392
63.0459 119.522 61.7455
73.3824 119.846 61.1066
71.9438 119.985 61.9894
62.4605 122.675 60.7749
63.5167 121.021 61.716
63.9732 122.653 61.3298
64.797 121.504 62.1897
71.9096 121.486 61.4623
70.556 122.296 61.7764
70.6684 120.863 62.3374
73.3188 121.279 60.7914
62.849 124.396 60.5995
64.5083 124.289 60.9824
65.3206 122.779 61.8148
66.0038 124.024 61.2817
66.716 122.857 62.1714
70.09 124.043 60.9263
68.7819 123.868 61.5506
69.3479 122.48 62.1779
71.7103 123.14 60.8471
62.8842 125.643 60.3128
64.7551 125.721 60.5548
66.3479 125.443 60.6796
67.5388 123.968 61.6152
68.3827 125.109 60.7055
63.1139 127.012 59.7236
64.9825 114.749 62.1421
64.7344 115.927 62.3658
66.5611 115.501 62.7248
68.2982 115.254 62.6982
69.7013 115.077 62.3937
64.3523 117.425 62.4704
65.9529 116.811 62.8672
67.6264 116.567 62.9774
69.5174 116.368 62.7567
64.2489 118.753 62.4737
65.9686 118.505 62.9653
67.3387 117.855 63.0839
69.0703 117.839 62.9928
70.7701 117.946 62.6081
64.5559 120.166 62.4577
66.0616 119.824 62.9022
67.4999 119.494 63.0477
68.9539 119.013 63.0031
70.5456 119.269 62.6551
66.1437 121.482 62.6135
67.5808 120.941 62.8719
69.1768 120.79 62.7658
68.1869 122.227 62.4909
POLYGONS 1000  4000
3 0 1 2
3 0 3 4
3 1 0 4
3 4 3 5
3 6 0 2
3 7 6 2
3 3 0 8
3 8 0 6
3 9 5 3
3 8 9 3
3 6 7 10
3 8 6 10
3 11 8 10
3 9 8 11
3 12 13 14
3 12 15 16
3 13 12 16
3 15 17 18
3 16 15 18
3 17 19 20
3 18 17 20
3 20 19 21
3 22 23 24
3 14 23 22
3 14 22 12
3 12 22 25
3 1 25 2
3 1 15 25
3 15 12 25
3 4 15 1
3 17 15 4
3 5 17 4
3 5 26 17
3 26 19 17
3 27 21 19
3 27 19 28
3 28 19 26
3 27 28 29
3 30 22 24
3 31 30 24
3 25 22 32
3 32 22 30
3 2 32 7
3 25 32 2
3 26 9 33
3 5 9 26
3 28 26 34
3 34 26 33
3 35 29 28
3 34 35 28
3 30 31 36
3 36 37 38
3 36 38 30
3 30 38 32
3 7 39 10
3 7 32 39
3 32 38 39
3 10 40 11
3 39 40 10
3 11 40 41
3 9 11 41
3 9 41 42
3 9 42 33
3 34 33 42
3 43 34 42
3 35 34 43
3 38 37 44
3 39 38 44
3 45 39 44
3 40 39 45
3 46 40 45
3 41 40 46
3 47 48 49
3 47 14 13
3 47 13 48
3 48 13 50
3 16 51 13
3 13 51 50
3 18 52 16
3 16 52 51
3 20 53 18
3 18 53 52
3 21 54 55
3 21 55 20
3 20 55 53
3 55 54 56
3 57 58 59
3 49 58 57
3 47 49 57
3 47 57 24
3 47 24 23
3 14 47 23
3 21 27 54
3 29 60 61
3 27 29 61
3 27 61 56
3 27 56 54
3 61 60 62
3 63 57 59
3 64 63 59
3 24 63 31
3 57 63 24
3 60 35 65
3 29 35 60
3 66 62 60
3 65 66 60
3 63 64 67
3 68 67 69
3 36 67 68
3 36 63 67
3 36 31 63
3 36 68 37
3 42 41 70
3 42 71 43
3 70 71 42
3 43 71 72
3 35 43 72
3 35 72 73
3 35 73 65
3 66 65 73
3 68 69 74
3 75 74 76
3 44 74 75
3 44 68 74
3 44 37 68
3 44 77 45
3 75 77 44
3 45 78 46
3 77 78 45
3 46 78 79
3 41 46 79
3 41 79 80
3 41 80 70
3 71 70 80
3 81 71 80
3 72 71 81
3 75 76 82
3 77 75 82
3 83 77 82
3 78 77 83
3 84 78 83
3 79 78 84
3 85 86 87
3 85 88 89
3 86 85 89
3 88 90 91
3 89 88 91
3 90 92 93
3 91 90 93
3 92 94 95
3 93 92 95
3 95 94 96
3 97 98 99
3 97 49 48
3 97 48 98
3 98 48 100
3 87 50 85
3 87 100 50
3 100 48 50
3 51 85 50
3 88 85 51
3 52 88 51
3 90 88 52
3 53 90 52
3 92 90 53
3 55 92 53
3 94 92 55
3 56 101 102
3 55 56 102
3 55 102 96
3 55 96 94
3 102 101 103
3 58 97 99
3 58 99 59
3 59 99 104
3 49 97 58
3 56 61 101
3 62 105 106
3 61 62 106
3 61 106 103
3 61 103 101
3 106 105 107
3 59 104 64
3 104 108 64
3 105 66 109
3 62 66 105
3 110 107 105
3 109 110 105
3 111 67 64
3 111 64 112
3 112 64 108
3 67 111 69
3 73 72 113
3 73 113 114
3 66 73 114
3 66 114 115
3 66 115 109
3 110 109 115
3 111 112 116
3 117 116 118
3 74 116 117
3 74 111 116
3 74 69 111
3 74 117 76
3 80 79 119
3 120 80 119
3 120 121 80
3 121 81 80
3 113 72 81
3 113 81 122
3 122 81 121
3 114 113 122
3 117 118 123
3 76 117 123
3 76 123 82
3 82 123 124
3 83 82 125
3 82 124 125
3 84 83 126
3 83 125 126
3 119 79 84
3 119 84 127
3 127 84 126
3 120 119 127
3 128 129 130
3 128 131 132
3 129 128 132
3 131 87 86
3 131 86 132
3 132 86 133
3 89 134 86
3 86 134 133
3 91 135 89
3 89 135 134
3 93 136 91
3 91 136 135
3 95 137 93
3 93 137 136
3 96 138 139
3 96 139 95
3 95 139 137
3 138 140 141
3 139 138 141
3 141 140 142
3 98 128 130
3 98 130 99
3 99 130 143
3 100 128 98
3 131 128 100
3 87 131 100
3 96 102 138
3 103 138 102
3 103 144 138
3 144 140 138
3 145 142 140
3 145 140 146
3 146 140 144
3 145 146 147
3 99 143 104
3 143 148 104
3 103 106 144
3 107 144 106
3 107 149 144
3 149 146 144
3 150 147 146
3 149 150 146
3 104 148 108
3 148 151 108
3 149 152 153
3 149 107 152
3 107 110 152
3 150 149 153
3 108 151 112
3 151 154 112
3 115 155 156
3 114 155 115
3 152 110 115
3 156 152 115
3 157 116 112
3 157 112 158
3 158 112 154
3 116 157 118
3 121 120 159
3 160 121 159
3 160 161 121
3 161 122 121
3 155 114 122
3 161 155 122
3 157 158 162
3 118 157 162
3 118 162 123
3 123 162 163
3 124 123 164
3 123 163 164
3 125 124 165
3 124 164 165
3 126 125 166
3 125 165 166
3 127 126 167
3 126 166 167
3 159 120 127
3 159 127 168
3 168 127 167
3 160 159 168
3 169 170 171
3 169 172 173
3 170 169 173
3 172 174 175
3 173 172 175
3 174 176 177
3 175 174 177
3 176 178 179
3 177 176 179
3 178 180 181
3 179 178 181
3 180 182 183
3 181 180 183
3 183 182 184
3 129 185 186
3 130 129 186
3 132 187 129
3 129 187 185
3 171 133 169
3 171 187 133
3 187 132 133
3 134 169 133
3 172 169 134
3 135 172 134
3 174 172 135
3 136 174 135
3 176 174 136
3 137 176 136
3 178 176 137
3 139 178 137
3 180 178 139
3 141 180 139
3 182 180 141
3 142 188 189
3 141 142 189
3 141 189 184
3 141 184 182
3 188 190 191
3 189 188 191
3 191 190 192
3 130 186 143
3 186 193 143
3 142 145 188
3 147 188 145
3 147 194 188
3 194 190 188
3 195 192 190
3 194 195 190
3 143 193 148
3 193 196 148
3 194 150 197
3 147 150 194
3 198 195 194
3 197 198 194
3 148 196 151
3 196 199 151
3 153 152 200
3 153 200 201
3 150 153 201
3 150 201 202
3 150 202 197
3 198 197 202
3 151 199 154
3 199 203 154
3 156 204 205
3 155 204 156
3 200 152 156
3 200 156 206
3 206 156 205
3 201 200 206
3 154 203 158
3 203 207 158
3 161 208 209
3 160 208 161
3 204 155 161
3 209 204 161
3 158 207 210
3 162 158 210
3 163 162 211
3 162 210 211
3 164 163 212
3 163 211 212
3 165 164 213
3 164 212 213
3 166 165 214
3 165 213 214
3 167 166 215
3 166 214 215
3 168 167 216
3 167 215 216
3 208 160 168
3 216 208 168
3 217 218 219
3 217 220 221
3 218 217 221
3 221 220 222
3 223 224 225
3 223 171 170
3 223 170 224
3 224 170 226
3 173 227 170
3 170 227 226
3 175 228 173
3 173 228 227
3 177 229 175
3 175 229 228
3 179 230 177
3 177 230 229
3 219 181 217
3 219 230 181
3 230 179 181
3 183 217 181
3 220 217 183
3 184 231 232
3 183 184 232
3 183 232 222
3 183 222 220
3 231 233 234
3 232 231 234
3 234 233 235
3 185 236 237
3 186 185 237
3 225 187 223
3 225 236 187
3 236 185 187
3 171 223 187
3 184 189 231
3 191 231 189
3 233 231 191
3 233 191 192
3 233 192 235
3 235 192 238
3 186 237 193
3 237 239 193
3 192 195 238
3 238 195 240
3 193 239 196
3 239 241 196
3 242 243 244
3 242 244 240
3 242 240 198
3 198 240 195
3 196 241 199
3 241 245 199
3 202 243 242
3 202 201 243
3 201 246 243
3 198 202 242
3 199 245 203
3 245 247 203
3 205 248 249
3 204 248 205
3 206 205 250
3 205 249 250
3 246 201 206
3 250 246 206
3 203 247 207
3 247 251 207
3 252 253 254
3 252 209 208
3 252 254 209
3 254 255 209
3 248 204 209
3 255 248 209
3 207 251 256
3 210 207 256
3 211 210 257
3 210 256 257
3 212 211 258
3 211 257 258
3 213 212 259
3 212 258 259
3 214 213 260
3 213 259 260
3 215 214 261
3 214 260 261
3 253 252 216
3 253 216 261
3 261 216 215
3 208 216 252
3 262 263 264
3 262 265 266
3 263 262 266
3 265 267 268
3 266 265 268
3 268 267 269
3 270 271 272
3 270 273 274
3 271 270 274
3 273 275 276
3 274 273 276
3 275 277 278
3 276 275 278
3 277 279 280
3 278 277 280
3 264 280 279
3 264 279 262
3 262 279 281
3 218 281 219
3 218 265 281
3 265 262 281
3 221 265 218
3 267 265 221
3 222 282 283
3 221 222 283
3 221 283 269
3 221 269 267
3 283 282 284
3 224 270 272
3 224 272 225
3 225 272 285
3 226 270 224
3 273 270 226
3 227 273 226
3 275 273 227
3 228 275 227
3 277 275 228
3 229 277 228
3 279 277 229
3 230 279 229
3 281 279 230
3 219 281 230
3 222 232 282
3 282 286 284
3 282 232 286
3 232 234 286
3 286 234 235
3 287 286 235
3 236 288 237
3 236 289 288
3 236 225 289
3 225 285 289
3 235 238 287
3 287 238 290
3 288 291 239
3 237 288 239
3 292 288 289
3 291 288 292
3 293 294 295
3 293 295 290
3 293 290 240
3 240 290 238
3 291 296 297
3 291 297 239
3 239 297 241
3 292 296 291
3 244 294 293
3 244 243 294
3 243 298 294
3 240 244 293
3 241 297 245
3 297 299 245
3 300 301 302
3 300 302 298
3 300 298 246
3 246 298 243
3 245 299 247
3 299 303 247
3 304 305 306
3 304 249 248
3 304 306 249
3 306 307 249
3 301 300 250
3 301 250 307
3 307 250 249
3 246 250 300
3 308 309 251
3 308 251 303
3 303 251 247
3 308 310 309
3 311 312 313
3 311 314 315
3 313 314 311
3 315 254 253
3 315 314 254
3 314 316 254
3 305 304 255
3 305 255 316
3 316 255 254
3 248 255 304
3 251 309 256
3 309 310 317
3 309 317 256
3 256 317 257
3 258 257 318
3 257 317 318
3 259 258 319
3 258 318 319
3 312 311 260
3 312 260 319
3 319 260 259
3 261 260 311
3 315 261 311
3 253 261 315
3 320 321 322
3 320 323 324
3 321 320 324
3 324 323 325
3 326 327 328
3 326 329 330
3 327 326 330
3 329 331 332
3 330 329 332
3 331 333 334
3 332 331 334
3 322 334 333
3 320 322 333
3 320 333 264
3 320 264 263
3 266 320 263
3 323 320 266
3 323 335 325
3 323 266 335
3 266 268 335
3 335 268 269
3 336 335 269
3 271 337 338
3 272 271 338
3 328 274 326
3 328 337 274
3 337 271 274
3 276 326 274
3 329 326 276
3 278 329 276
3 331 329 278
3 280 331 278
3 333 331 280
3 264 333 280
3 269 339 336
3 283 339 269
3 339 283 284
3 340 339 284
3 272 338 285
3 338 341 285
3 342 284 286
3 342 343 284
3 343 340 284
3 286 287 342
3 285 341 289
3 341 344 289
3 345 343 342
3 346 343 345
3 287 290 345
3 342 287 345
3 289 344 292
3 344 347 292
3 295 346 345
3 295 294 346
3 294 348 346
3 290 295 345
3 296 349 297
3 296 350 349
3 296 292 350
3 292 347 350
3 351 352 353
3 351 353 348
3 351 348 298
3 298 348 294
3 349 354 355
3 349 355 297
3 297 355 299
3 350 354 349
3 356 357 358
3 352 356 358
3 351 356 352
3 351 301 356
3 351 302 301
3 298 302 351
3 359 360 303
3 359 303 355
3 355 303 299
3 359 361 360
3 362 363 364
3 362 365 366
3 364 365 362
3 366 306 305
3 366 365 306
3 365 367 306
3 357 356 307
3 357 307 367
3 367 307 306
3 301 307 356
3 303 360 308
3 310 368 369
3 308 368 310
3 308 361 368
3 308 360 361
3 369 370 371
3 368 370 369
3 371 372 373
3 370 372 371
3 373 313 312
3 373 372 313
3 372 374 313
3 363 362 314
3 363 314 374
3 374 314 313
3 316 314 362
3 366 316 362
3 305 316 366
3 310 369 317
3 318 317 369
3 371 318 369
3 319 318 371
3 373 319 371
3 312 319 373
3 375 376 377
3 375 378 379
3 376 375 379
3 378 380 381
3 379 378 381
3 380 322 321
3 380 321 381
3 381 321 382
3 324 383 321
3 321 383 382
3 383 324 325
3 384 383 325
3 327 385 386
3 328 327 386
3 377 330 375
3 377 385 330
3 385 327 330
3 332 375 330
3 378 375 332
3 334 378 332
3 380 378 334
3 322 380 334
3 387 325 335
3 387 388 325
3 388 384 325
3 335 336 387
3 337 389 338
3 337 390 389
3 337 328 390
3 328 386 390
3 387 391 388
3 392 393 391
3 339 392 391
3 339 391 387
3 339 387 336
3 339 340 392
3 389 394 341
3 338 389 341
3 395 389 390
3 394 389 395
3 396 393 392
3 397 393 396
3 340 343 396
3 392 340 396
3 394 398 344
3 341 394 344
3 399 394 395
3 398 394 399
3 400 397 396
3 401 397 400
3 343 346 400
3 396 343 400
3 398 402 347
3 344 398 347
3 403 398 399
3 402 398 403
3 404 401 400
3 405 401 404
3 346 348 404
3 400 346 404
3 402 406 350
3 347 402 350
3 407 402 403
3 406 402 407
3 408 409 410
3 405 408 410
3 404 408 405
3 404 352 408
3 404 353 352
3 348 353 404
3 354 411 355
3 354 350 406
3 354 406 411
3 411 406 412
3 413 406 407
3 412 406 413
3 414 415 416
3 414 417 418
3 416 417 414
3 409 418 417
3 408 418 409
3 408 357 418
3 408 358 357
3 352 358 408
3 355 411 359
3 361 359 411
3 361 411 419
3 419 411 412
3 420 412 413
3 419 412 420
3 421 422 423
3 421 424 425
3 423 424 421
3 425 364 363
3 425 424 364
3 424 426 364
3 415 414 365
3 415 365 426
3 426 365 364
3 367 365 414
3 418 367 414
3 357 367 418
3 361 419 368
3 419 420 427
3 419 427 368
3 368 427 370
3 422 421 372
3 422 372 427
3 427 372 370
3 374 372 421
3 425 374 421
3 363 374 425
3 376 428 429
3 377 376 429
3 430 431 428
3 430 428 379
3 379 428 376
3 379 381 432
3 430 379 432
3 381 382 433
3 432 381 433
3 382 383 434
3 433 382 434
3 383 384 434
3 385 435 386
3 385 436 435
3 385 377 436
3 377 429 436
3 430 437 431
3 432 437 430
3 438 437 432
3 433 438 432
3 439 438 433
3 439 440 441
3 439 433 440
3 433 434 440
3 384 388 440
3 434 384 440
3 435 442 390
3 386 435 390
3 443 435 436
3 442 435 443
3 444 441 440
3 445 441 444
3 388 391 446
3 388 446 440
3 440 446 444
3 391 393 446
3 442 447 395
3 390 442 395
3 448 442 443
3 447 442 448
3 444 449 445
3 449 450 451
3 449 444 450
3 444 446 450
3 393 397 450
3 446 393 450
3 447 452 399
3 395 447 399
3 453 447 448
3 452 447 453
3 454 451 450
3 455 451 454
3 397 401 454
3 450 397 454
3 452 456 403
3 399 452 403
3 457 452 453
3 457 458 452
3 458 456 452
3 457 459 458
3 460 461 462
3 455 460 462
3 455 454 460
3 454 463 460
3 401 405 463
3 454 401 463
3 456 464 407
3 403 456 407
3 458 465 456
3 465 464 456
3 466 458 459
3 466 467 458
3 467 465 458
3 466 468 467
3 469 470 471
3 461 469 471
3 461 460 469
3 460 472 469
3 410 409 472
3 410 472 463
3 463 472 460
3 405 410 463
3 464 473 413
3 407 464 413
3 465 474 464
3 474 473 464
3 467 475 465
3 475 474 465
3 476 467 468
3 476 477 467
3 477 475 467
3 470 477 476
3 469 477 470
3 469 415 477
3 469 416 415
3 417 416 469
3 472 417 469
3 409 417 472
3 473 478 420
3 413 473 420
3 423 422 478
3 423 478 474
3 474 478 473
3 424 423 474
3 475 424 474
3 426 424 475
3 477 426 475
3 415 426 477
3 420 478 427
3 422 427 478
3 428 479 429
3 428 431 479
3 479 480 436
3 429 479 436
3 431 437 481
3 431 481 479
3 479 481 480
3 437 438 482
3 481 437 482
3 438 439 483
3 482 438 483
3 439 441 483
3 480 484 443
3 436 480 443
3 481 485 480
3 485 484 480
3 482 486 481
3 486 485 481
3 483 487 482
3 487 486 482
3 441 445 487
3 483 441 487
3 484 488 448
3 443 484 448
3 485 489 484
3 489 488 484
3 486 490 485
3 490 489 485
3 487 491 486
3 491 490 486
3 445 449 492
3 445 492 487
3 487 492 491
3 449 451 492
3 488 493 453
3 448 488 453
3 489 494 488
3 494 493 488
3 490 495 489
3 495 494 489
3 491 496 490
3 496 495 490
3 492 497 491
3 497 496 491
3 451 455 497
3 492 451 497
3 453 493 457
3 459 457 493
3 459 493 498
3 498 493 494
3 495 499 494
3 499 498 494
3 496 500 495
3 500 499 495
3 462 461 500
3 462 500 497
3 497 500 496
3 455 462 497
3 459 498 466
3 468 466 498
3 468 498 501
3 501 498 499
3 471 470 501
3 471 501 500
3 500 501 499
3 461 471 500
3 468 501 476
3 470 476 501
POINT_DATA 502
SCALARS Scalars float
LOOKUP_TABLE default
25
25
25
25
25
25
25
25
25
25
25
25
25
25
25
25
25
25
25
25
25
25
25
25
25
25
25
25
25
25
25
25
25
25
25
25
25
25
25
25
25
25
25
25
25
25
25
25
25
25
25
25
25
25
25
25
25
25
25
25
25
25
25
25
25
25
25
25
25
25
25
25
25
25
25
25
25
25
25
25
25
25
25
25
25
25
25
25
25
25
25
25
25
25
25
25
25
25
25
25
25
25
25
25
25
25
25
25
25
25
25
25
25
25
25
25
25
25
25
25
25
25
25
25
25
25
25
25
25
25
25
25
25
25
25
25
25
25
25
25
25
25
25
25
25
25
25
25
25
25
25
25
25
25
25
25
25
25
25
25
25
25
25
25
25
25
25
25
25
25
25
25
25
25
25
25
25
25
25
25
25
25
25
25
25
25
25
25
25
25
25
25
25
25
25
25
25
25
25
25
25
25
25
25
25
25
25
25
25
25
25
25
25
25
25
25
25
25
25
25
25
25
25
25
25
25
25
25
25
25
25
25
25
25
25
25
25
25
25
25
25
25
25
25
25
25
25
25
25
25
25
25
25
25
25
25
25
25
25
25
25
25
25
25
25
25
25
25
25
25
25
25
25
25
25
25
25
25
25
25
25
25
25
25
25
25
25
25
25
25
25
25
25
25
25
25
25
25
25
25
25
25
25
25
25
25
25
25
25
25
25
25
25
25
25
25
25
25
25
25
25
25
25
25
25
25
25
25
25
25
25
25
25
25
25
25
25
25
25
25
25
25
25
25
25
25
25
25
25
25
25
25
25
25
25
25
25
25
25
25
25
25
25
25
25
25
25
25
25
25
25
25
25
25
25
25
25
25
25
25
25
25
25
25
25
25
25
25
25
25
25
25
25
25
25
25
25
25
25
25
25
25
25
25
25
25
25
25
25
25
25
25
25
25
25
25
25
25
25
25
25
25
25
25
25
25
25
25
25
25
25
25
25
25
25
25
25
25
25
25
25
25
25
25
25
25
25
25
25
25
25
25
25
25
25
25
25
25
25
25
25
25
25
25
25
25
25
25
25
25
25
25
25
25
25
25
25
25
25
25
25
25
25
25
25
25
25
25
25
25
25
25
25
25
25
25
25
25
25
25
25
25
