# vtk DataFile Version 3.0
this file was written using fslvtkio
ASCII
DATASET POLYDATA
POINTS 854 float
70.3878 118.315 63.4923
69.7866 117.768 63.7317
69.4883 118.584 63.7473
71.1909 118.102 63.6934
70.4261 117.581 63.7744
71.306 117.438 64.2494
70.1904 119.158 63.5132
69.3139 119.195 63.977
71.4357 119.069 63.5903
71.7478 118.173 64.1626
69.9979 119.719 63.5625
69.57 120.112 64.0292
71.1189 120.113 63.4584
72.2945 119.188 63.9946
72.2355 120.036 63.4117
73.332 120.271 63.5702
72.8113 119.476 63.9515
73.4301 119.585 64.3101
70.2202 120.384 63.8179
70.9011 120.666 63.7957
71.2779 121.085 63.7931
71.742 120.864 63.4747
73.0812 120.896 63.3969
74.0216 120.228 64.1236
74.1244 120.829 63.6084
74.6529 120.503 64.2854
71.498 121.511 63.9458
72.1364 122.001 63.8743
72.7587 121.767 63.4726
73.787 121.744 63.3854
75.1761 120.991 64.3367
75.0009 121.77 63.635
75.6236 121.399 64.2212
72.5579 122.462 63.9065
73.0583 122.833 63.8119
73.3928 122.368 63.4999
74.5822 122.486 63.4745
75.9702 122.006 64.0513
75.5081 122.46 63.5522
76.5205 122.687 63.9376
73.6018 123.233 63.8295
74.5084 123.335 63.5951
75.069 123.664 63.6311
75.4539 123.245 63.4821
76.2644 123.424 63.7013
75.7872 124.008 63.783
68.1908 114.834 64.3968
67.7405 113.774 65.0299
67.4894 114.595 64.5229
68.4326 114.012 64.8746
67.5242 115.403 64.3112
67.003 114.78 64.5078
66.6082 115.074 64.6872
68.4085 115.493 64.2565
69.0616 114.605 64.7358
69.3156 115.266 64.5475
69.617 114.512 65.4031
66.6657 116.079 64.4477
65.9859 115.525 64.909
65.6507 116.366 65.2672
67.3804 116.359 64.2544
68.1136 116.159 64.1799
69.2299 116.174 64.2098
69.9032 115.26 64.9341
70.0262 116.126 64.4097
70.5467 115.685 65.2599
66.393 116.759 64.6712
66.5489 117.321 64.7578
67.057 117.052 64.4111
68.0165 117.264 64.2042
68.7881 116.801 64.1305
69.6971 116.962 64.1268
70.7764 116.232 64.7969
70.4525 116.769 64.2735
71.268 116.778 64.7675
66.8313 117.821 64.9556
67.2868 118.357 64.9063
67.8352 117.958 64.3711
68.762 117.806 64.1489
71.7173 117.407 64.7973
67.8371 118.572 64.6239
68.0792 118.97 64.7563
68.4893 118.525 64.3023
72.1461 118.028 64.8435
72.425 118.689 64.4668
72.7124 118.503 64.9761
68.4266 119.438 64.8552
69.0884 119.913 64.574
73.0063 119.093 64.7858
73.6804 119.414 64.9604
69.5918 120.593 64.6232
70.7472 121.183 64.2358
70.2087 121.215 64.6999
74.2339 119.915 65.0148
75.1449 120.576 64.6486
74.7987 120.22 64.9771
75.4602 120.653 65.1383
70.6097 121.678 64.7869
71.6443 122.196 64.3185
71.2027 122.271 64.751
76.0726 121.536 64.4015
75.8788 121.114 64.8459
76.5083 121.67 64.7764
71.7298 122.721 64.6696
72.8177 123.151 64.207
72.3569 123.569 64.7912
77.1994 123.293 64.1617
77.0817 122.479 64.4517
78.2574 123.425 64.4399
78.0105 122.62 64.8699
79.0208 123.34 64.7012
78.7599 122.811 64.9033
79.3127 123.046 65.4569
73.148 123.73 64.388
73.9396 123.92 64.1392
73.6035 124.468 64.6726
74.6291 123.927 63.9909
76.7663 124.074 63.9868
77.8427 124.049 64.2435
78.8384 124.032 64.5741
79.4603 123.718 65.3276
74.3593 124.772 64.6086
75.1119 124.718 64.3223
76.0766 124.714 64.1197
75.4655 125.401 64.6455
76.8746 124.951 64.2454
77.7671 124.889 64.3366
78.6792 124.928 64.6098
79.4987 124.706 65.385
76.2898 125.735 64.6915
77.18 125.733 64.6861
78.2522 125.529 64.7521
79.1412 125.45 65.2491
66.8079 114.376 64.9825
66.8571 113.564 65.5817
66.2518 114.086 65.5248
67.8355 113.229 65.8104
69.1342 114.082 65.2441
68.4997 113.56 65.4563
69.3649 113.844 65.8361
66.1417 114.796 65.1773
65.6694 114.434 65.7666
65.396 115.475 65.6571
69.804 114.334 66.1743
65.1895 116.276 66.0674
70.1217 115.062 65.7426
70.7653 115.587 66.0507
66.0543 117.178 65.2168
65.485 117.015 65.8511
71.105 116.143 65.5834
71.6461 116.684 65.6865
66.2477 117.979 65.6049
66.6969 118.495 65.461
66.2556 118.56 66.2044
72.1092 117.289 65.646
72.2178 117.665 65.3
72.6127 117.763 65.8742
66.733 119.101 65.8127
66.6075 119.294 66.6748
67.6319 119.152 65.22
73.1053 118.582 65.3823
72.8354 118.165 65.6053
73.4287 118.604 66.0113
67.1555 119.59 66.0739
67.9741 119.797 65.6501
68.6483 120.054 65.1701
68.3295 120.272 65.6735
74.3592 119.654 65.5107
73.8161 119.127 65.6734
74.5749 119.594 66.2113
68.8002 120.737 65.6598
69.8104 121.271 65.1523
69.3186 121.277 65.6324
74.9535 120.062 65.8871
75.5986 120.513 66.3218
69.8392 121.759 65.5902
70.7406 122.264 65.1782
70.3588 122.589 65.7379
76.0787 120.997 65.7502
77.0892 121.846 65.2023
76.6817 121.378 65.513
77.4913 121.735 66.0987
71.022 123.041 65.5111
71.8384 123.653 65.2064
71.0529 123.695 65.8875
77.8723 122.197 65.6001
78.5687 122.429 65.8171
79.3761 123.185 66.218
71.8814 124.412 65.6378
71.1125 124.271 66.2332
72.6496 124.317 65.1271
79.646 124.092 65.9994
71.7912 124.781 66.1633
72.2442 125.364 66.4737
72.5787 124.986 65.5986
73.7465 125.234 65.1849
74.7333 125.395 64.9439
79.6608 124.741 66.1754
72.8164 125.737 66.2392
73.165 126.177 66.4774
73.5577 125.754 65.5578
74.495 126.085 65.3702
75.7693 126.179 65.1117
76.6658 126.31 65.0749
77.7541 126.193 65.1042
78.5143 126.173 65.3385
79.564 125.5 66.0301
73.9123 126.397 65.9092
74.5676 126.829 66.1522
75.2781 127.322 66.2904
75.5334 126.909 65.6861
76.3212 127.02 65.5441
77.4458 126.905 65.4312
78.376 126.788 65.6255
79.2061 126.321 65.981
76.0073 127.458 66.2339
77.017 127.464 65.9946
78.1562 127.387 66.1603
66.3444 112.411 66.3084
65.9721 111.747 66.6262
65.5998 112.318 66.4675
67.3258 112.113 66.596
66.8913 111.637 66.785
67.5266 111.534 67.4296
65.5581 112.906 66.2905
64.9249 112.555 66.6936
64.4971 113.141 66.7978
66.2573 113.066 66.1505
66.9128 113.058 66.0882
67.9751 112.225 67.0439
67.9467 112.718 66.4191
68.5177 112.708 66.9649
65.1711 113.587 66.3155
64.6292 113.954 66.5929
66.1161 113.626 66.0311
68.6507 113.123 66.3205
69.5121 113.643 66.7727
65.128 114.551 66.236
64.5143 114.774 66.9175
69.893 114.131 67.0501
64.8729 115.364 66.4159
64.4877 115.449 67.1426
70.4249 114.97 66.8236
70.8357 115.479 66.6754
64.8006 116.168 67.1348
65.2147 116.858 66.7078
71.2753 116.075 66.33
71.8709 116.675 66.4592
65.8191 117.927 66.1659
65.4675 117.657 66.7933
72.2142 117.127 66.2887
72.791 117.579 67.0583
65.8003 118.327 66.876
66.3548 119.036 67.4013
73.1677 118.185 66.5181
73.5997 118.576 67.0497
67.1623 119.916 66.8817
67.9798 120.386 66.2436
67.3932 120.514 67.2811
73.9081 118.994 66.4536
74.5343 119.494 66.9447
68.2358 120.865 66.454
68.9145 121.264 66.1139
68.5351 121.406 66.6181
75.0098 120.032 66.8011
75.7205 120.593 67.3008
68.8634 121.829 66.7601
69.6791 122.47 66.2408
69.1258 122.665 66.972
76.0708 120.933 66.8568
76.7143 121.238 66.6626
77.5558 121.736 66.9041
69.7105 123.261 66.6609
69.2263 123.158 67.0942
70.3909 123.227 66.1216
78.1622 122.25 66.6251
78.907 122.706 66.5383
78.7336 122.785 67.3677
69.5882 123.623 67.2217
70.2619 124.29 67.2634
70.417 123.825 66.4882
79.1797 123.185 67.0975
79.5812 123.885 67.0422
70.8391 124.638 67.0398
71.542 125.057 67.0951
71.9893 125.408 67.0565
79.694 124.825 67.0329
72.5199 125.882 67.0368
73.0581 126.32 67.0109
79.6519 125.761 67.0903
73.8105 126.83 66.9325
74.5707 127.201 66.6487
74.4817 127.483 67.2776
78.7938 127.06 66.305
79.3948 126.622 66.8414
75.2957 127.718 67.2434
76.3126 127.755 67.2041
76.8857 127.727 66.9603
77.7852 127.646 66.9284
78.7631 127.343 67.0668
66.2904 109.995 67.6184
65.9639 109.524 67.6477
65.7989 110.16 67.4266
66.1544 109.776 68.2225
66.0653 110.773 67.3291
65.47 110.548 67.6
66.452 110.278 68.057
65.1702 111.189 67.3784
64.9581 110.716 67.9255
64.6023 111.257 68.3667
65.9375 111.339 67.0384
66.8555 110.642 67.8326
66.9235 111.153 67.3502
67.3707 111.042 68.0605
64.5058 111.61 67.549
64.1061 111.668 68.3003
63.8106 112.267 67.7456
65.1674 111.75 67.0671
67.9059 111.661 68.1953
64.2449 112.448 67.2689
63.6818 113.005 67.8246
68.2965 112.182 67.8423
68.7899 112.612 68.0664
64.0721 113.258 67.3443
64.2458 113.977 67.2434
69.1097 113.177 67.2073
69.6968 113.638 67.6495
64.2245 114.602 67.9919
64.5372 115.267 67.7354
64.5481 115.385 68.4956
70.1893 114.169 67.8368
70.346 114.598 67.3081
70.7123 114.809 67.7644
64.664 115.831 67.5709
64.9575 116.108 68.1123
71.0653 115.759 66.835
70.8791 115.255 67.2418
71.4012 115.911 67.1074
65.1777 116.711 67.7311
65.4978 117.466 67.5483
65.647 117.35 68.143
72.2808 116.944 67.0897
71.9365 116.422 67.2519
72.5501 116.963 67.8057
65.7552 118.13 67.4323
65.9905 118.075 68.3123
72.9375 117.659 68.0759
66.2248 118.819 68.4951
73.1503 118.044 67.5422
73.4983 118.396 68.0317
66.818 119.77 67.6979
67.1317 120.336 68.0693
74.121 119.165 67.4056
74.0304 119.089 68.08
68.1407 121.387 67.2111
67.6028 121.205 68.1613
74.5755 119.636 67.7064
75.1394 120.157 68.0193
75.7715 120.696 68.0734
68.1623 121.778 67.8307
68.6637 122.384 67.3836
68.3227 122.35 68.2013
76.2737 121.099 67.7198
76.9339 121.429 67.4567
77.016 121.74 68.3048
68.8895 123.055 67.5709
68.672 122.986 68.4598
77.5613 121.997 67.8242
78.1843 122.405 67.9192
78.6878 122.811 67.9429
69.3405 123.69 68.3591
69.8047 124.196 67.772
69.8358 124.185 68.5295
79.1384 123.431 67.872
79.524 124.185 67.7771
70.4881 124.636 67.9163
71.1764 125.027 67.8567
71.7027 125.456 67.5869
71.5199 125.484 68.5596
79.6088 125.311 67.9214
72.0681 125.896 68.1578
72.7993 126.416 67.5874
72.6857 126.528 68.5252
79.5493 126.136 67.7959
73.1929 126.858 68.0965
73.7832 127.266 67.6643
73.6483 127.31 68.4511
79.1856 127.07 67.551
74.5728 127.687 67.935
75.2646 127.772 68.0235
76.083 127.784 68.0704
76.8785 127.763 67.8659
77.6237 127.711 67.8293
78.3925 127.476 68.0616
65.5627 109.872 67.9206
65.7869 110.27 68.315
65.0835 110.697 68.5018
65.7614 110.626 68.7177
66.6105 110.625 68.6412
63.7834 112.1 68.5554
64.2857 111.867 69.0964
64.9568 111.127 68.886
66.0042 110.862 69.0295
67.0926 110.829 69.1657
67.7226 111.349 68.8207
63.7446 112.443 69.0239
63.5157 112.802 68.5663
68.475 112.143 68.6423
68.9514 112.652 68.6828
63.9151 113.943 68.0603
63.5952 113.523 68.7042
69.354 113.117 68.3945
69.8425 113.576 68.6244
63.8542 114.347 68.6684
64.2426 114.97 68.7441
64.1209 114.72 69.725
70.3053 114.097 68.5368
70.882 114.724 68.6992
[...]
POINT_DATA 854
SCALARS Scalars float
LOOKUP_TABLE default
0.5
0.5
0.5
0.5
0.5
0.5
0.5
0.5
0.5
0.5
0.5
0.5
0.5
0.5
0.5
0.5
0.5
0.5
0.5
0.5
0.5
0.5
0.5
0.5
0.5
0.5
0.5
0.5
0.5
0.5
0.5
0.5
0.5
0.5
0.5
0.5
0.5
0.5
0.5
0.5
0.5
0.5
0.5
0.5
0.5
0.5
0.5
0.5
0.5
0.5
0.5
0.5
0.5
0.5
0.5
0.5
0.5
0.5
0.5
0.5
0.5
0.5
0.5
0.5
0.5
0.5
0.5
0.5
0.5
0.5
0.5
0.5
0.5
0.5
0.5
0.5
0.5
0.5
0.5
0.5
0.5
0.5
0.5
0.5
0.5
0.5
0.5
0.5
0.5
0.5
0.5
0.5
0.5
0.5
0.5
0.5
0.5
0.5
0.5
0.5
0.5
0.5
0.5
0.5
0.5
0.5
0.5
0.5
0.5
0.5
0.5
0.5
0.5
0.5
0.5
0.5
0.5
0.5
0.5
0.5
0.5
0.5
0.5
0.5
0.5
0.5
0.5
0.5
0.5
0.5
0.5
0.5
0.5
0.5
0.5
0.5
0.5
0.5
0.5
0.5
0.5
0.5
0.5
0.5
0.5
0.5
0.5
0.5
0.5
0.5
0.5
0.5
0.5
0.5
0.5
0.5
0.5
0.5
0.5
0.5
0.5
0.5
0.5
0.5
0.5
0.5
0.5
0.5
0.5
0.5
0.5
0.5
0.5
0.5
0.5
0.5
0.5
0.5
0.5
0.5
0.5
0.5
0.5
0.5
0.5
0.5
0.5
0.5
0.5
0.5
0.5
0.5
0.5
0.5
0.5
0.5
0.5
0.5
0.5
0.5
0.5
0.5
0.5
0.5
0.5
0.5
0.5
0.5
0.5
0.5
0.5
0.5
0.5
0.5
0.5
0.5
0.5
0.5
0.5
0.5
0.5
0.5
0.5
0.5
0.5
0.5
0.5
0.5
0.5
0.5
0.5
0.5
0.5
0.5
0.5
0.5
0.5
0.5
0.5
0.5
0.5
0.5
0.5
0.5
0.5
0.5
0.5
0.5
0.5
0.5
0.5
0.5
0.5
0.5
0.5
0.5
0.5
0.5
0.5
0.5
0.5
0.5
0.5
0.5
0.5
0.5
0.5
0.5
0.5
0.5
0.5
0.5
0.5
0.5
0.5
0.5
0.5
0.5
0.5
0.5
0.5
0.5
0.5
0.5
0.5
0.5
0.5
0.5
0.5
0.5
0.5
0.5
0.5
0.5
0.5
0.5
0.5
0.5
0.5
0.5
0.5
0.5
0.5
0.5
0.5
0.5
0.5
0.5
0.5
0.5
0.5
0.5
0.5
0.5
0.5
0.5
0.5
0.5
0.5
0.5
0.5
0.5
0.5
0.5
0.5
0.5
0.5
0.5
0.5
0.5
0.5
0.5
0.5
0.5
0.5
0.5
0.5
0.5
0.5
0.5
0.5
0.5
0.5
0.5
0.5
0.5
0.5
0.5
0.5
0.5
0.5
0.5
0.5
0.5
0.5
0.5
0.5
0.5
0.5
0.5
0.5
0.5
0.5
0.5
0.5
0.5
0.5
0.5
0.5
0.5
0.5
0.5
0.5
0.5
0.5
0.5
0.5
0.5
0.5
0.5
0.5
0.5
0.5
0.5
0.5
0.5
0.5
0.5
0.5
0.5
0.5
0.5
0.5
0.5
0.5
0.5
0.5
0.5
0.5
0.5
0.5
0.5
0.5
0.5
0.5
0.5
0.5
0.5
0.5
0.5
0.5
0.5
0.5
0.5
0.5
0.5
0.5
0.5
0.5
0.5
0.5
0.5
0.5
0.5
0.5
0.5
0.5
0.5
0.5
0.5
0.5
0.5
0.5
0.5
0.5
0.5
0.5
0.5
0.5
0.5
0.5
0.5
0.5
0.5
0.5
0.5
0.5
0.5
0.5
0.5
0.5
0.5
0.5
0.5
0.5
0.5
0.5
0.5
0.5
0.5
0.5
0.5
0.5
0.5
0.5
0.5
0.5
0.5
0.5
0.5
0.5
0.5
0.5
0.5
0.5
0.5
0.5
0.5
0.5
0.5
0.5
0.5
0.5
0.5
0.5
0.5
0.5
0.5
0.5
0.5
0.5
0.5
0.5
0.5
0.5
0.5
0.5
0.5
0.5
0.5
0.5
0.5
0.5
0.5
0.5
0.5
0.5
0.5
0.5
0.5
0.5
0.5
0.5
0.5
0.5
0.5
0.5
0.5
0.5
0.5
0.5
0.5
0.5
0.5
0.5
0.5
0.5
0.5
0.5
0.5
0.5
0.5
0.5
0.5
0.5
0.5
0.5
0.5
0.5
0.5
0.5
0.5
0.5
0.5
0.5
0.5
0.5
0.5
0.5
0.5
0.5
0.5
0.5
0.5
0.5
0.5
0.5
0.5
0.5
0.5
0.5
0.5
0.5
0.5
0.5
0.5
0.5
0.5
0.5
0.5
0.5
0.5
0.5
0.5
0.5
0.5
0.5
0.5
0.5
0.5
0.5
0.5
0.5
0.5
0.5
0.5
0.5
0.5
0.5
0.5
0.5
0.5
0.5
0.5
0.5
0.5
0.5
0.5
0.5
0.5
0.5
0.5
0.5
0.5
0.5
0.5
0.5
0.5
0.5
0.5
0.5
0.5
0.5
0.5
0.5
0.5
0.5
0.5
0.5
0.5
0.5
0.5
0.5
0.5
0.5
0.5
0.5
0.5
0.5
0.5
0.5
0.5
0.5
0.5
0.5
0.5
0.5
0.5
0.5
0.5
0.5
0.5
0.5
0.5
0.5
0.5
0.5
0.5
0.5
0.5
0.5
0.5
0.5
0.5
0.5
0.5
0.5
0.5
0.5
0.5
0.5
0.5
0.5
0.5
0.5
0.5
0.5
0.5
0.5
0.5
0.5
0.5
0.5
0.5
0.5
0.5
0.5
0.5
0.5
0.5
0.5
0.5
0.5
0.5
0.5
0.5
0.5
0.5
0.5
0.5
0.5
0.5
0.5
0.5
0.5
0.5
0.5
0.5
0.5
0.5
0.5
0.5
0.5
0.5
0.5
0.5
0.5
0.5
0.5
0.5
0.5
0.5
0.5
0.5
0.5
0.5
0.5
0.5
0.5
0.5
0.5
0.5
0.5
0.5
0.5
0.5
0.5
0.5
0.5
0.5
0.5
0.5
0.5
0.5
0.5
0.5
0.5
0.5
0.5
0.5
0.5
0.5
0.5
0.5
0.5
0.5
0.5
0.5
0.5
0.5
0.5
0.5
0.5
0.5
0.5
0.5
0.5
0.5
0.5
0.5
0.5
0.5
0.5
0.5
0.5
0.5
0.5
0.5
0.5
0.5
0.5
0.5
0.5
0.5
0.5
0.5
0.5
0.5
0.5
0.5
0.5
0.5
0.5
0.5
0.5
0.5
0.5
0.5
0.5
0.5
0.5
0.5
0.5
0.5
0.5
0.5
0.5
0.5
0.5
0.5
0.5
0.5
0.5
0.5
0.5
0.5
0.5
0.5
0.5
0.5
0.5
0.5
0.5
0.5
0.5
0.5
0.5
0.5
0.5
0.5
0.5
0.5
0.5
0.5
0.5
0.5
0.5
0.5
0.5
0.5
0.5
0.5
0.5
0.5
0.5
0.5
0.5
0.5
0.5
0.5
0.5
0.5
0.5
0.5
0.5
0.5
0.5
0.5
0.5
0.5
0.5
0.5
0.5
0.5
