# vtk DataFile Version 3.0
this file was written using fslvtkio
ASCII
DATASET POLYDATA
POINTS 332 float
68.6506 117.551 65.4042
67.4977 115.728 66.0793
67.083 117.175 65.7318
70.3279 117.154 65.6892
69.0215 115.767 66.0593
70.5361 116.031 66.8214
67.2527 118.657 65.4954
65.7827 117.533 66.1896
65.5679 118.87 66.2233
68.9103 119.006 65.1464
70.7204 118.902 65.0735
71.6353 117.333 66.2687
72.2264 118.85 65.3329
72.662 117.975 67.0668
66.9125 120.352 65.6024
65.4521 120.709 66.4711
68.7341 120.587 65.0915
70.6293 120.503 64.8832
72.3309 120.486 64.869
73.4947 119.269 65.9319
73.7717 120.575 65.0878
74.7777 120.117 66.5786
66.7071 121.895 65.8871
65.8419 122.453 66.7951
68.3703 122.096 65.2543
70.303 122.244 64.8763
71.9468 122.284 64.7244
73.7185 122.307 64.7037
75.2789 121.159 65.879
75.3038 122.376 65.1697
76.2823 122.07 66.3846
66.9742 123.106 66.0555
67.3636 124.142 66.1999
68.4799 123.662 65.5362
69.9281 123.753 65.1209
71.6124 123.726 64.8525
73.3928 123.744 64.7365
75.3128 123.989 65.1003
76.5125 123.426 66.1292
67.9688 124.963 66.437
69.1527 126.026 66.1928
69.7334 125.345 65.6396
71.3951 125.57 65.3263
73.112 125.214 65.0011
75.0162 125.364 65.2653
76.619 125.091 66.2491
70.4763 126.721 66.1023
72.4656 126.683 65.6059
74.3529 126.745 65.6286
75.9115 126.459 65.9872
65.1153 112.562 67.5115
64.2918 111.64 68.2489
63.6476 113.091 68.1093
66.5712 112.627 67.4521
66.0373 111.468 68.3084
67.446 111.836 68.7286
64.6857 114.165 67.1369
63.297 114.437 68.47
65.9822 114.012 66.8754
68.1475 113.034 67.9857
67.3491 114.355 66.7721
69.2711 114.871 66.8491
69.1883 113.855 67.7488
70.4213 114.61 68.3152
64.42 115.573 67.1947
63.4043 116.063 68.3055
66.0139 115.684 66.5874
71.2396 115.824 68.6883
64.4402 117.232 67.1823
63.4883 117.481 68.4581
72.0377 116.97 67.8227
72.9543 118.111 68.7551
64.2624 118.706 67.2929
63.5786 119.04 68.6667
73.8306 118.928 67.5622
74.9117 120.093 68.0258
64.3779 120.407 67.7041
64.975 122.112 68.1851
75.9343 121.269 67.7677
76.6841 122.553 67.7958
66.5038 124.073 67.0533
65.4214 123.461 68.4573
77.2344 124.375 68.1057
66.7299 125.112 67.7588
68.1888 126.196 67.1043
67.0834 126.184 68.6819
77.4786 124.995 67.3508
77.5452 125.504 66.8332
77.9515 125.791 67.5621
68.6641 127.256 67.6061
70.388 128.098 66.8703
69.0951 128.644 68.5349
72.043 128.019 66.2697
74.0324 128.135 66.2444
75.5764 128.168 66.6274
76.9189 127.206 67.0842
77.3508 126.272 67.0273
70.3386 129.213 67.5045
69.7209 129.866 68.9641
71.8152 129.376 66.9053
73.4671 129.495 66.6792
75.1454 129.514 66.9171
76.7111 129.342 67.754
70.9137 130.381 68.2234
71.9213 130.915 68.1811
73.0197 131.954 68.5725
73.187 130.898 67.4
74.8293 131.054 67.4917
76.2191 130.747 68.0934
74.4155 132.288 68.7197
75.8837 131.833 68.7125
64.3884 110.688 68.9123
63.3817 110.775 70.2528
63.2063 111.859 69.3952
65.471 110.436 69.1937
64.8086 110.014 70.3167
66.4795 110.735 70.062
62.923 113.021 69.6445
68.5786 112.363 69.4038
67.6025 111.42 70.1015
68.8062 112.407 70.7858
62.9049 114.657 69.9884
69.8392 113.527 69.3177
70.7615 114.883 70.0985
62.9262 115.976 70.1132
71.3511 116.132 70.7161
63.0859 117.508 70.1936
72.1977 117.073 69.5532
72.867 118.441 70.4946
63.3446 119.144 70.2521
73.9564 119.355 69.0277
73.7277 119.771 70.6466
64.0671 120.922 69.2105
64.6918 122.191 69.822
75.0195 120.682 69.6008
76.0287 121.67 69.2956
76.7126 123.009 69.3677
65.185 123.509 70.3417
77.0849 124.599 69.8821
65.847 124.735 69.4577
66.4266 125.701 70.4807
77.542 126.002 68.2755
77.4437 125.94 69.7123
67.7674 127.421 69.136
67.1582 127.013 70.8256
77.5565 127.16 68.721
77.366 128.406 68.1281
77.9256 128.139 69.3773
68.367 128.582 69.8292
69.2893 129.731 70.196
77.468 129.786 68.841
77.9178 129.141 69.3275
70.4749 130.783 69.9518
71.7104 131.608 69.4036
71.3288 131.734 70.809
77.0112 130.862 69.8416
77.7253 130.008 70.284
73.0934 132.546 70.0062
74.518 132.732 70.2179
75.865 132.341 70.1455
63.8353 110.586 71.5619
63.0401 111.964 71.1966
65.5761 110.379 71.2788
65.1096 110.958 72.5468
62.8858 113.329 71.0434
66.484 111.036 71.8458
67.6889 111.596 71.6031
68.4928 112.716 72.6303
62.9568 114.506 71.5173
69.8323 113.606 70.7672
69.4646 113.759 72.2493
63.0183 116.074 71.6597
70.197 114.644 71.8709
70.811 115.833 72.2069
63.1829 117.571 71.65
72.007 117.36 71.0992
71.3978 117.108 72.501
63.5084 119.256 71.6268
72.501 118.583 71.8773
73.3653 120.046 72.2258
63.9744 120.762 70.8885
64.6856 121.638 72.1222
74.6047 120.976 71.1652
75.8617 122.309 70.6643
75.3258 122.886 72.0878
65.1772 122.924 72.3223
76.2164 123.639 71.1677
75.7531 124.37 72.6026
65.7536 124.619 71.2658
66.6662 125.697 72.3814
76.5945 124.865 71.4437
77.1078 126.361 71.4012
67.2931 126.913 72.3896
77.7812 127.377 70.0879
77.4034 127.93 71.3679
68.1568 128.586 71.3247
69.0706 129.512 72.0838
77.8568 128.688 70.6526
77.2585 129.616 71.4886
70.3509 130.785 71.8202
71.3961 131.629 72.3237
76.673 131.366 71.1813
72.6899 132.482 71.6759
73.9731 132.8 71.5466
75.389 132.41 71.9659
63.7 111.579 72.5791
64.8767 111.962 73.6912
63.4028 112.86 72.7449
66.1628 111.706 73.454
67.431 112.026 73.0693
66.5965 112.292 74.1562
63.3766 114.45 73.1979
67.5624 112.983 74.1196
68.805 113.666 73.5878
63.4466 115.814 73.2941
69.7831 115.066 73.6525
70.5957 116.688 74.0422
63.6015 117.153 73.2331
63.9334 118.698 73.1588
64.3577 118.006 74.2893
71.1994 117.964 74.0872
64.127 120.293 72.4748
64.6932 120.186 73.7455
72.2339 118.948 73.2057
72.6155 120.394 74.1947
65.2127 121.39 73.9777
74.1412 121.419 72.6078
73.4374 121.616 73.9559
65.6702 122.912 73.7278
66.0118 124.379 72.7723
66.6556 124.269 74.2275
74.6046 122.841 73.3117
75.052 124.35 73.8829
67.1734 125.496 74.108
76.2796 125.766 72.7663
75.6277 126.189 74.0772
67.7244 126.962 73.6359
68.2835 128.334 72.7041
68.747 128.126 74.0581
76.5442 127.11 73.0803
76.9076 128.6 72.7011
69.3375 129.24 73.7652
76.7395 130.155 72.624
70.2625 130.433 73.2126
71.5888 131.096 73.6437
72.67 132.107 73.0366
73.3021 131.482 74.201
76.2507 131.413 72.4558
75.3178 131.355 73.6134
76.1675 130.709 73.4772
74.0798 132.265 73.1382
64.1573 113.268 74.1597
65.6004 112.913 74.6871
64.2202 114.728 74.6057
65.2428 114.616 75.6386
66.5357 113.749 75.5161
68.3182 114.153 74.8075
67.4259 114.755 76.0211
64.0554 116.215 74.4264
64.945 116.42 75.5909
68.6136 115.05 75.3293
69.7259 115.9 74.8161
68.8778 116.044 75.9133
65.062 118.517 75.3258
69.7802 117.035 75.6037
70.4793 118.107 75.4261
65.3527 119.891 75.2662
71.6584 119.323 74.7123
70.8245 119.335 75.7462
66.3028 120.868 75.9539
66.1497 122.37 74.9901
66.8802 122.263 75.9583
71.6301 120.543 75.6998
72.7237 121.686 75.3355
67.2619 123.918 75.6287
74.1392 123.318 74.5407
73.472 123.636 75.6878
68.1127 124.951 76.0803
68.1737 126.485 74.9787
68.9334 126.734 75.8104
74.2744 124.777 75.39
74.9133 126.209 75.2492
69.5804 127.948 75.6833
76.0939 127.896 74.1398
75.2795 127.954 75.1556
70.0498 128.969 75.4447
70.3888 130.016 74.5697
71.038 129.541 75.822
75.8742 129.703 74.1582
74.6248 129.576 75.3559
71.5614 130.434 74.9531
73.1644 130.445 75.292
74.6874 130.819 74.5408
66.0989 115.327 76.3515
65.7249 117.008 76.2551
67.3689 116.309 76.7044
65.9787 118.48 76.433
67.2148 117.74 77.1561
68.5265 117.175 76.8041
69.7697 118.404 76.4465
69.0871 118.802 77.2839
65.9323 119.727 76.274
66.8032 119.585 76.9554
69.5271 120.352 76.8685
68.7095 120.008 77.4469
67.6026 120.797 76.8968
67.9451 122.182 76.7806
69.1593 121.803 77.4325
70.4779 121.038 77.0771
71.818 121.477 76.5137
71.1345 122.329 77.6101
67.9249 123.594 76.6694
68.7382 123.821 77.2239
72.2215 122.582 76.8429
72.7466 123.564 76.671
69.0769 125.447 76.8593
70.3436 127.029 76.8363
70.4911 125.674 77.5525
73.6995 125.734 76.4146
72.9469 125.321 76.9475
71.1733 128.307 76.5554
71.7132 126.541 77.3612
72.489 127.515 76.8763
74.1751 127.356 76.1892
72.365 129.387 76.2494
73.7616 128.997 76.1208
67.9192 118.331 77.5763
67.7484 119.682 77.6447
69.9901 122.899 77.9637
69.905 124.5 77.7576
71.433 123.708 77.8441
71.8392 124.854 77.7133
POLYGONS 660  2640
3 0 1 2
3 0 3 4
3 1 0 4
3 4 3 5
3 6 7 8
3 2 7 6
3 2 6 0
3 0 6 9
3 3 0 10
3 10 0 9
3 11 5 3
3 11 3 12
3 12 3 10
3 11 12 13
3 14 6 8
3 15 14 8
3 9 6 16
3 16 6 14
3 10 9 17
3 17 9 16
3 12 10 18
3 18 10 17
3 19 13 12
3 19 12 20
3 20 12 18
3 19 20 21
3 22 14 15
3 23 22 15
3 16 14 24
3 24 14 22
3 17 16 25
3 25 16 24
3 18 17 26
3 26 17 25
3 20 18 27
3 27 18 26
3 28 21 20
3 28 20 29
3 29 20 27
3 28 29 30
3 22 23 31
3 31 32 33
3 31 33 22
3 22 33 24
3 25 24 34
3 34 24 33
3 26 25 35
3 35 25 34
3 27 26 36
3 36 26 35
3 29 27 37
3 37 27 36
3 38 30 29
3 37 38 29
3 33 32 39
3 39 40 41
3 39 41 33
3 33 41 34
3 35 34 42
3 42 34 41
3 36 35 43
3 43 35 42
3 37 36 44
3 44 36 43
3 45 38 37
3 44 45 37
3 41 40 46
3 42 41 46
3 47 42 46
3 43 42 47
3 48 43 47
3 44 43 48
3 49 44 48
3 45 44 49
3 50 51 52
3 50 53 54
3 51 50 54
3 54 53 55
3 56 50 52
3 57 56 52
3 53 50 58
3 58 50 56
3 59 55 53
3 59 53 60
3 60 53 58
3 60 61 62
3 59 60 62
3 62 61 63
3 64 56 57
3 65 64 57
3 58 56 66
3 66 56 64
3 1 66 2
3 1 60 66
3 60 58 66
3 4 60 1
3 61 60 4
3 61 4 5
3 61 5 63
3 63 5 67
3 68 64 65
3 69 68 65
3 7 68 8
3 7 66 68
3 66 64 68
3 2 66 7
3 5 70 67
3 11 70 5
3 70 11 13
3 71 70 13
3 72 68 69
3 73 72 69
3 8 72 15
3 68 72 8
3 13 74 71
3 19 74 13
3 74 19 21
3 75 74 21
3 72 73 76
3 76 15 72
3 76 77 15
3 77 23 15
3 21 78 75
3 28 78 21
3 78 28 30
3 79 78 30
3 80 31 23
3 80 23 81
3 81 23 77
3 31 80 32
3 30 38 79
3 79 38 82
3 80 81 83
3 84 83 85
3 39 83 84
3 39 80 83
3 39 32 80
3 39 84 40
3 86 45 87
3 86 82 45
3 82 38 45
3 86 87 88
3 84 85 89
3 90 89 91
3 46 89 90
3 46 84 89
3 46 40 84
3 46 92 47
3 90 92 46
3 47 93 48
3 92 93 47
3 48 94 49
3 93 94 48
3 49 94 95
3 45 49 95
3 45 95 96
3 45 96 87
3 88 87 96
3 97 90 91
3 98 97 91
3 92 90 99
3 99 90 97
3 93 92 100
3 100 92 99
3 94 93 101
3 101 93 100
3 102 95 94
3 101 102 94
3 97 98 103
3 99 97 103
3 104 99 103
3 104 105 106
3 104 106 99
3 99 106 100
3 101 100 107
3 107 100 106
3 108 102 101
3 107 108 101
3 106 105 109
3 107 106 109
3 110 107 109
3 108 107 110
3 111 112 113
3 111 114 115
3 112 111 115
3 115 114 116
3 51 111 113
3 51 113 52
3 52 113 117
3 54 111 51
3 114 111 54
3 55 118 119
3 54 55 119
3 54 119 116
3 54 116 114
3 119 118 120
3 52 117 57
3 117 121 57
3 55 59 118
3 118 122 120
3 118 59 122
3 59 62 122
3 122 62 63
3 123 122 63
3 57 121 65
3 121 124 65
3 63 67 123
3 123 67 125
3 65 124 69
3 124 126 69
3 67 127 125
3 70 127 67
3 127 70 71
3 128 127 71
3 69 126 73
3 126 129 73
3 130 71 74
3 130 131 71
3 131 128 71
3 74 75 130
3 73 129 132
3 76 73 132
3 132 77 76
3 133 77 132
3 130 134 131
3 75 134 130
3 75 78 134
3 78 135 134
3 135 78 79
3 136 135 79
3 77 133 81
3 133 137 81
3 79 82 136
3 136 82 138
3 81 137 139
3 83 81 139
3 139 85 83
3 140 85 139
3 141 82 86
3 141 142 82
3 142 138 82
3 86 88 141
3 143 89 85
3 143 85 144
3 144 85 140
3 89 143 91
3 145 95 146
3 145 142 95
3 96 95 141
3 141 95 142
3 96 141 88
3 146 147 145
3 143 144 148
3 148 91 143
3 148 149 91
3 149 98 91
3 146 102 150
3 95 102 146
3 151 147 146
3 150 151 146
3 98 149 152
3 103 98 152
3 153 152 154
3 153 104 152
3 104 103 152
3 104 153 105
3 150 155 156
3 150 102 155
3 102 108 155
3 151 150 156
3 153 154 157
3 105 153 157
3 105 157 109
3 109 157 158
3 110 109 159
3 109 158 159
3 155 108 110
3 159 155 110
3 112 160 161
3 113 112 161
3 162 163 160
3 162 160 115
3 115 160 112
3 115 116 162
3 113 161 117
3 161 164 117
3 162 165 163
3 116 165 162
3 116 119 165
3 119 166 165
3 166 119 120
3 167 166 120
3 117 164 121
3 164 168 121
3 169 120 122
3 169 170 120
3 170 167 120
3 122 123 169
3 121 168 124
3 168 171 124
3 169 172 170
3 172 169 123
3 172 123 173
3 173 123 125
3 124 171 126
3 171 174 126
3 175 125 127
3 175 176 125
3 176 173 125
3 127 128 175
3 126 174 129
3 174 177 129
3 175 178 176
3 178 175 128
3 178 128 179
3 179 128 131
3 129 177 180
3 132 129 180
3 180 133 132
3 181 133 180
3 131 182 179
3 134 182 131
3 183 184 182
3 183 182 135
3 135 182 134
3 135 136 183
3 133 181 137
3 181 185 137
3 186 184 183
3 187 184 186
3 136 138 186
3 183 136 186
3 137 185 188
3 139 137 188
3 188 140 139
3 189 140 188
3 186 190 187
3 190 186 138
3 190 138 191
3 191 138 142
3 140 189 144
3 189 192 144
3 193 142 145
3 193 194 142
3 194 191 142
3 145 147 193
3 144 192 195
3 148 144 195
3 195 149 148
3 196 149 195
3 197 194 193
3 198 194 197
3 147 151 197
3 193 147 197
3 149 196 199
3 152 149 199
3 199 154 152
3 200 154 199
3 156 198 197
3 156 155 198
3 155 201 198
3 151 156 197
3 154 200 202
3 157 154 202
3 158 157 203
3 157 202 203
3 159 158 204
3 158 203 204
3 201 155 159
3 204 201 159
3 160 205 161
3 160 163 205
3 205 206 207
3 205 207 161
3 161 207 164
3 163 206 205
3 163 165 206
3 165 208 206
3 209 210 208
3 209 208 166
3 166 208 165
3 166 167 209
3 164 207 168
3 207 211 168
3 209 212 210
3 212 209 167
3 212 167 213
3 213 167 170
3 168 211 171
3 211 214 171
3 170 215 213
3 172 215 170
3 215 172 173
3 216 215 173
3 217 218 174
3 217 174 214
3 214 174 171
3 217 219 218
3 173 176 216
3 216 176 220
3 218 221 177
3 174 218 177
3 222 218 219
3 221 218 222
3 176 223 220
3 178 223 176
3 223 178 179
3 224 223 179
3 177 221 180
3 221 181 180
3 221 222 181
3 222 225 181
3 226 179 182
3 226 227 179
3 227 224 179
3 182 184 226
3 228 229 185
3 228 185 225
3 225 185 181
3 228 230 229
3 226 231 227
3 231 226 184
3 231 184 232
3 232 184 187
3 185 229 188
3 229 189 188
3 229 230 189
3 230 233 189
3 234 187 190
3 234 235 187
3 235 232 187
3 190 191 234
3 236 237 192
3 236 192 233
3 233 192 189
3 236 238 237
3 234 239 235
3 239 234 191
3 239 191 240
3 240 191 194
3 192 237 195
3 237 196 195
3 237 238 196
3 238 241 196
3 194 198 240
3 240 198 242
3 196 241 243
3 199 196 243
3 200 244 245
3 200 199 244
3 199 243 244
3 244 246 245
3 247 248 249
3 247 249 242
3 247 242 201
3 201 242 198
3 200 245 202
3 245 246 250
3 245 250 202
3 202 250 203
3 248 247 204
3 248 204 250
3 250 204 203
3 201 204 247
3 206 251 207
3 206 208 252
3 251 206 252
3 208 210 252
3 251 253 211
3 207 251 211
3 254 252 255
3 254 253 252
3 253 251 252
3 256 257 255
3 212 256 255
3 212 255 252
3 212 252 210
3 212 213 256
3 253 258 214
3 211 253 214
3 259 253 254
3 258 253 259
3 256 260 257
3 261 262 260
3 215 261 260
3 215 260 256
3 215 256 213
3 215 216 261
3 214 258 217
3 258 219 217
3 258 259 219
3 259 263 219
3 261 264 262
3 264 261 216
3 264 216 265
3 265 216 220
3 219 263 222
3 263 266 222
3 267 220 223
3 267 268 220
3 268 265 220
3 223 224 267
3 269 270 225
3 269 225 266
3 266 225 222
3 269 271 270
3 267 272 268
3 272 267 224
3 272 224 273
3 273 224 227
3 225 270 228
3 270 230 228
3 270 271 230
3 271 274 230
3 275 227 231
3 275 276 227
3 276 273 227
3 231 232 275
3 277 278 233
3 277 233 274
3 274 233 230
3 277 279 278
3 275 280 276
3 280 275 232
3 280 232 281
3 281 232 235
3 233 278 236
3 278 238 236
3 278 279 238
3 279 282 238
3 283 235 239
3 283 284 235
3 284 281 235
3 239 240 283
3 285 286 241
3 285 241 282
3 282 241 238
3 285 287 286
3 288 284 283
3 289 284 288
3 240 242 288
3 283 240 288
3 241 286 243
3 286 287 290
3 286 290 243
3 243 290 244
3 246 291 292
3 246 244 291
3 244 290 291
3 289 292 291
3 288 292 289
3 288 248 292
3 288 249 248
3 242 249 288
3 246 292 250
3 248 250 292
3 255 293 254
3 255 257 293
3 293 294 259
3 254 293 259
3 257 260 295
3 257 295 293
3 293 295 294
3 260 262 295
3 294 296 263
3 259 294 263
3 297 295 298
3 297 296 295
3 296 294 295
3 299 300 298
3 264 299 298
3 264 298 295
3 264 295 262
3 264 265 299
3 296 301 266
3 263 296 266
3 302 296 297
3 301 296 302
3 303 300 299
3 304 300 303
3 265 268 303
3 299 265 303
3 266 301 269
3 271 305 306
3 269 305 271
3 269 302 305
3 269 301 302
3 307 303 308
3 307 306 303
3 304 303 305
3 305 303 306
3 309 310 308
3 272 309 308
3 272 308 303
3 272 303 268
3 272 273 309
3 306 311 274
3 271 306 274
3 312 306 307
3 311 306 312
3 309 313 310
3 313 309 273
3 313 273 314
3 314 273 276
3 274 311 277
3 279 315 316
3 277 315 279
3 277 312 315
3 277 311 312
3 315 317 316
3 318 276 280
3 318 319 276
3 319 314 276
3 280 281 318
3 316 320 282
3 279 316 282
3 321 316 317
3 321 322 316
3 322 320 316
3 319 322 321
3 319 318 322
3 318 323 322
3 281 284 323
3 318 281 323
3 282 320 285
3 287 285 320
3 287 320 324
3 324 320 322
3 323 325 322
3 325 324 322
3 284 289 325
3 323 284 325
3 287 324 290
3 291 290 324
3 325 291 324
3 289 291 325
3 298 326 297
3 298 300 326
3 326 327 302
3 297 326 302
3 300 304 327
3 326 300 327
3 302 327 305
3 304 305 327
3 308 328 307
3 308 310 328
3 328 329 312
3 307 328 312
3 310 313 330
3 310 330 328
3 328 330 329
3 313 314 330
3 312 329 315
3 317 315 329
3 317 329 331
3 331 329 330
3 314 319 331
3 330 314 331
3 317 331 321
3 319 321 331
POINT_DATA 332
SCALARS Scalars float
LOOKUP_TABLE default
50
50
50
50
50
50
50
50
50
50
50
50
50
50
50
50
50
50
50
50
50
50
50
50
50
50
50
50
50
50
50
50
50
50
50
50
50
50
50
50
50
50
50
50
50
50
50
50
50
50
50
50
50
50
50
50
50
50
50
50
50
50
50
50
50
50
50
50
50
50
50
50
50
50
50
50
50
50
50
50
50
50
50
50
50
50
50
50
50
50
50
50
50
50
50
50
50
50
50
50
50
50
50
50
50
50
50
50
50
50
50
50
50
50
50
50
50
50
50
50
50
50
50
50
50
50
50
50
50
50
50
50
50
50
50
50
50
50
50
50
50
50
50
50
50
50
50
50
50
50
50
50
50
50
50
50
50
50
50
50
50
50
50
50
50
50
50
50
50
50
50
50
50
50
50
50
50
50
50
50
50
50
50
50
50
50
50
50
50
50
50
50
50
50
50
50
50
50
50
50
50
50
50
50
50
50
50
50
50
50
50
50
50
50
50
50
50
50
50
50
50
50
50
50
50
50
50
50
50
50
50
50
50
50
50
50
50
50
50
50
50
50
50
50
50
50
50
50
50
50
50
50
50
50
50
50
50
50
50
50
50
50
50
50
50
50
50
50
50
50
50
50
50
50
50
50
50
50
50
50
50
50
50
50
50
50
50
50
50
50
50
50
50
50
50
50
50
50
50
50
50
50
50
50
50
50
50
50
50
50
50
50
50
50
50
50
50
50
50
50
50
50
50
50
50
50
50
50
50
50
50
50
